LAMMPS FENE chain data file

         245  atoms
         244  bonds
           0  angles
           0  dihedrals
           0  impropers

           1  atom types
           1  bond types
           0  angle types
           0  dihedral types
           0  improper types

     -31.286627      31.286627 xlo xhi
     -31.286627      31.286627 ylo yhi
     -31.286627      31.286627 zlo zhi

Masses

  1  1.0

Atoms

         1       1       1    8.8173   19.0075   22.9254   0   0   0
         2       1       1    8.0170   18.8721   22.3942   0   0   0
         3       1       1    7.2588   18.2673   22.4094   0   0   0
         4       1       1    7.0039   17.6854   23.1424   0   0   0
         5       1       1    7.5596   16.9212   22.9229   0   0   0
         6       1       1    8.0740   17.6523   23.2995   0   0   0
         7       1       1    8.5262   17.7194   22.4439   0   0   0
         8       1       1    7.8919   18.4510   22.5024   0   0   0
         9       1       1    6.9367   18.3020   22.4237   0   0   0
        10       1       1    6.2053   18.8503   22.0991   0   0   0
        11       1       1    5.4965   19.4139   22.4468   0   0   0
        12       1       1    4.7796   19.6255   21.8285   0   0   0
        13       1       1    4.2373   18.9231   22.2202   0   0   0
        14       1       1    3.4202   18.4595   21.9789   0   0   0
        15       1       1    4.2052   17.9660   21.6943   0   0   0
        16       1       1    5.0652   17.8361   22.1238   0   0   0
        17       1       1    4.8728   16.9058   21.9281   0   0   0
        18       1       1    4.8744   16.0246   22.3336   0   0   0
        19       1       1    4.4227   15.9950   21.4757   0   0   0
        20       1       1    3.8753   16.5205   20.8716   0   0   0
        21       1       1    3.6205   15.5867   20.8083   0   0   0
        22       1       1    4.4485   15.2450   21.1807   0   0   0
        23       1       1    3.8810   15.2069   21.9664   0   0   0
        24       1       1    4.3911   15.0927   22.7835   0   0   0
        25       1       1    5.3347   15.0372   22.5660   0   0   0
        26       1       1    5.3122   14.5335   21.7374   0   0   0
        27       1       1    5.9948   13.8661   21.9095   0   0   0
        28       1       1    6.8604   14.2333   21.6711   0   0   0
        29       1       1    7.3848   13.7594   22.3353   0   0   0
        30       1       1    7.3317   12.8570   21.9836   0   0   0
        31       1       1    8.2161   13.0812   21.6541   0   0   0
        32       1       1    8.1466   12.2465   21.1650   0   0   0
        33       1       1    7.7027   11.6144   21.7518   0   0   0
        34       1       1    7.0705   11.0127   22.1752   0   0   0
        35       1       1    7.5277   10.2827   21.7291   0   0   0
        36       1       1    8.1879   10.6066   21.0966   0   0   0
        37       1       1    8.4387   10.0729   20.3265   0   0   0
        38       1       1    9.1731    9.5556   20.6926   0   0   0
        39       1       1    8.7507    8.7863   21.1055   0   0   0
        40       1       1    7.9078    8.7353   21.5829   0   0   0
        41       1       1    7.4312    7.9492   21.8925   0   0   0
        42       1       1    6.6034    7.7859   22.3710   0   0   0
        43       1       1    6.4720    8.5301   22.9790   0   0   0
        44       1       1    6.1469    8.5508   23.8927   0   0   0
        45       1       1    6.7506    9.2957   23.7456   0   0   0
        46       1       1    6.9441    8.8617   22.9000   0   0   0
        47       1       1    7.7114    9.4548   22.8799   0   0   0
        48       1       1    8.5310    9.9732   22.8647   0   0   0
        49       1       1    9.3533    9.7797   22.3878   0   0   0
        50       1       1   10.1720    9.3637   22.0754   0   0   0
        51       1       1   10.2770    8.6913   22.7666   0   0   0
        52       1       1   11.1982    8.9746   22.6567   0   0   0
        53       1       1   12.0535    9.0392   22.2037   0   0   0
        54       1       1   11.4651    9.5286   21.6077   0   0   0
        55       1       1   12.3327    9.7815   21.2551   0   0   0
        56       1       1   12.5529    9.1171   21.9268   0   0   0
        57       1       1   12.8171    9.7134   22.6448   0   0   0
        58       1       1   12.4455    9.5897   23.5322   0   0   0
        59       1       1   12.5621    9.7984   24.4723   0   0   0
        60       1       1   12.4016    9.5124   25.3852   0   0   0
        61       1       1   12.5035    8.5894   25.6654   0   0   0
        62       1       1   12.0246    8.7225   24.8325   0   0   0
        63       1       1   11.5433    9.3973   25.3363   0   0   0
        64       1       1   11.3946    8.6824   25.9749   0   0   0
        65       1       1   11.3519    7.8648   26.4952   0   0   0
        66       1       1   12.1523    8.2426   26.8921   0   0   0
        67       1       1   11.9322    8.7651   27.6792   0   0   0
        68       1       1   11.3831    8.1076   28.1343   0   0   0
        69       1       1   11.6824    7.8554   29.0218   0   0   0
        70       1       1   11.7265    6.9144   29.2529   0   0   0
        71       1       1   11.3408    6.0262   29.3103   0   0   0
        72       1       1   10.7511    5.2567   29.3427   0   0   0
        73       1       1   10.0690    5.8515   28.9937   0   0   0
        74       1       1    9.3868    6.5410   28.9880   0   0   0
        75       1       1    8.7013    6.6951   28.3192   0   0   0
        76       1       1    7.8132    6.6113   27.9382   0   0   0
        77       1       1    8.4596    6.9878   27.3206   0   0   0
        78       1       1    9.1077    7.5605   26.8815   0   0   0
        79       1       1    9.1038    8.5060   27.0984   0   0   0
        80       1       1    9.9797    8.4954   26.6817   0   0   0
        81       1       1    9.9552    8.1863   25.7626   0   0   0
        82       1       1    9.7006    7.7631   24.9277   0   0   0
        83       1       1    9.6463    7.2885   24.0835   0   0   0
        84       1       1    8.8257    6.9504   23.6922   0   0   0
        85       1       1    8.5537    7.8749   23.8032   0   0   0
        86       1       1    8.4774    8.5469   24.4985   0   0   0
        87       1       1    8.8803    7.9053   25.1042   0   0   0
        88       1       1    8.7627    7.0769   24.6133   0   0   0
        89       1       1    8.1005    6.4575   24.2690   0   0   0
        90       1       1    7.8294    7.0068   23.5169   0   0   0
        91       1       1    7.4338    6.5054   22.7869   0   0   0
        92       1       1    8.3223    6.2132   23.0439   0   0   0
        93       1       1    8.7153    7.0049   23.4434   0   0   0
        94       1       1    8.1891    6.4783   24.0652   0   0   0
        95       1       1    8.8441    7.0207   24.5318   0   0   0
        96       1       1    9.6972    6.6250   24.2938   0   0   0
        97       1       1    9.0241    5.9291   24.3532   0   0   0
        98       1       1    9.7589    5.3113   24.2143   0   0   0
        99       1       1    9.9147    5.5017   23.2761   0   0   0
       100       1       1   10.3759    6.2101   23.7519   0   0   0
       101       1       1    9.5596    6.5621   23.3640   0   0   0
       102       1       1    8.9765    6.0030   23.9009   0   0   0
       103       1       1    8.4270    5.4151   24.4425   0   0   0
       104       1       1    7.6717    5.0950   24.9602   0   0   0
       105       1       1    8.3556    4.4083   24.9186   0   0   0
       106       1       1    7.6058    3.8048   25.0393   0   0   0
       107       1       1    7.5557    3.9492   25.9972   0   0   0
       108       1       1    7.3664    3.9660   26.9484   0   0   0
       109       1       1    7.4518    4.0748   27.9085   0   0   0
       110       1       1    7.8409    3.4223   28.5116   0   0   0
       111       1       1    6.9169    3.1830   28.3391   0   0   0
       112       1       1    7.2125    2.2636   28.2491   0   0   0
       113       1       1    7.3879    1.9423   29.1474   0   0   0
       114       1       1    7.2102    1.6362   30.0505   0   0   0
       115       1       1    6.7544    1.6192   30.9066   0   0   0
       116       1       1    6.7852    2.5065  -31.2759   0   0   1
       117       1       1    6.5441    1.7167  -30.7670   0   0   1
       118       1       1    5.8415    2.1108  -30.2267   0   0   1
       119       1       1    5.9857    2.1593  -29.2687   0   0   1
       120       1       1    5.1192    1.7306  -29.1893   0   0   1
       121       1       1    5.4688    1.1489  -29.8824   0   0   1
       122       1       1    5.7711    0.2669  -30.1501   0   0   1
       123       1       1    6.5253    0.4069  -30.7438   0   0   1
       124       1       1    7.4258    0.6144  -31.0384   0   0   1
       125       1       1    7.5410    0.8363  -30.1012   0   0   1
       126       1       1    7.3166   -0.1012  -29.9932   0   0   1
       127       1       1    6.5885   -0.7066  -30.2037   0   0   1
       128       1       1    6.2055   -0.9548  -31.0596   0   0   1
       129       1       1    5.6691   -1.4939  -30.4575   0   0   1
       130       1       1    4.9030   -1.4807  -29.8626   0   0   1
       131       1       1    4.6572   -1.1721  -30.7488   0   0   1
       132       1       1    4.8691   -0.2914  -31.0959   0   0   1
       133       1       1    5.7211   -0.0697  -30.6887   0   0   1
       134       1       1    6.3910   -0.6473  -31.0867   0   0   1
       135       1       1    7.0093   -1.3796  -30.9367   0   0   1
       136       1       1    6.9605   -2.3393  -31.0690   0   0   1
       137       1       1    6.8356   -2.9498  -30.3256   0   0   1
       138       1       1    5.9194   -3.2286  -30.1714   0   0   1
       139       1       1    5.4863   -2.8592  -30.9568   0   0   1
       140       1       1    4.5267   -2.8697  -31.0980   0   0   1
       141       1       1    4.2298   -3.7840  -31.2274   0   0   1
       142       1       1    3.7015   -4.0566  -30.4610   0   0   1
       143       1       1    3.0183   -3.9088  -29.7884   0   0   1
       144       1       1    3.0769   -4.5001  -29.0217   0   0   1
       145       1       1    2.1550   -4.7401  -29.2044   0   0   1
       146       1       1    1.5722   -5.4131  -29.5895   0   0   1
       147       1       1    0.7906   -5.9873  -29.5734   0   0   1
       148       1       1   -0.0851   -6.3825  -29.4392   0   0   1
       149       1       1   -0.7296   -5.6583  -29.4724   0   0   1
       150       1       1   -1.4610   -5.9744  -28.9193   0   0   1
       151       1       1   -2.3535   -6.2378  -28.6456   0   0   1
       152       1       1   -2.5563   -7.1828  -28.5629   0   0   1
       153       1       1   -2.4015   -8.0700  -28.9231   0   0   1
       154       1       1   -2.3729   -7.6546  -29.7991   0   0   1
       155       1       1   -1.4857   -7.7889  -30.1676   0   0   1
       156       1       1   -0.7473   -8.3958  -30.3332   0   0   1
       157       1       1   -0.2407   -7.5691  -30.3042   0   0   1
       158       1       1    0.3898   -7.4298  -29.5803   0   0   1
       159       1       1    0.0148   -7.2704  -28.7000   0   0   1
       160       1       1   -0.5127   -6.4724  -28.5393   0   0   1
       161       1       1   -0.0248   -6.6766  -27.7262   0   0   1
       162       1       1   -0.4565   -6.1230  -27.0568   0   0   1
       163       1       1    0.4892   -6.2728  -26.9011   0   0   1
       164       1       1    0.7561   -6.2032  -25.9712   0   0   1
       165       1       1    1.2464   -5.3662  -25.9701   0   0   1
       166       1       1    0.6860   -4.6149  -25.7202   0   0   1
       167       1       1    0.0582   -3.8827  -25.8233   0   0   1
       168       1       1   -0.3605   -3.1426  -26.2900   0   0   1
       169       1       1   -0.8523   -2.3259  -26.1109   0   0   1
       170       1       1   -1.6648   -2.3452  -26.6405   0   0   1
       171       1       1   -2.1621   -2.7629  -25.9201   0   0   1
       172       1       1   -1.9327   -3.7054  -25.9236   0   0   1
       173       1       1   -2.1530   -4.0513  -26.8026   0   0   1
       174       1       1   -3.1141   -3.9205  -26.8100   0   0   1
       175       1       1   -3.3786   -3.3029  -27.5096   0   0   1
       176       1       1   -3.9912   -2.6560  -27.8932   0   0   1
       177       1       1   -4.8987   -2.6301  -27.5516   0   0   1
       178       1       1   -5.7765   -2.3487  -27.2494   0   0   1
       179       1       1   -5.7933   -1.9497  -26.3655   0   0   1
       180       1       1   -6.0977   -1.0288  -26.3822   0   0   1
       181       1       1   -5.8511   -1.2764  -25.4773   0   0   1
       182       1       1   -5.2122   -0.5536  -25.3761   0   0   1
       183       1       1   -4.4767   -0.7546  -24.7766   0   0   1
       184       1       1   -4.3892   -1.3675  -24.0299   0   0   1
       185       1       1   -5.2916   -1.7224  -24.0029   0   0   1
       186       1       1   -5.4040   -0.7603  -23.9500   0   0   1
       187       1       1   -5.8972   -0.2320  -24.5969   0   0   1
       188       1       1   -4.9862   -0.1243  -24.9122   0   0   1
       189       1       1   -4.4833   -0.9135  -24.6569   0   0   1
       190       1       1   -3.6403   -0.7373  -25.1032   0   0   1
       191       1       1   -2.9161   -0.4426  -25.6773   0   0   1
       192       1       1   -2.0792   -0.1714  -26.0861   0   0   1
       193       1       1   -1.3712   -0.1106  -25.4258   0   0   1
       194       1       1   -0.5794   -0.2053  -24.8737   0   0   1
       195       1       1   -0.3550   -0.3741  -25.8022   0   0   1
       196       1       1   -0.1518   -1.1707  -25.2875   0   0   1
       197       1       1    0.0420   -0.5961  -24.5304   0   0   1
       198       1       1    0.1418   -1.0293  -23.6682   0   0   1
       199       1       1   -0.5954   -0.8175  -23.0745   0   0   1
       200       1       1   -1.0610   -0.1132  -22.5969   0   0   1
       201       1       1   -1.3946   -0.1074  -23.5077   0   0   1
       202       1       1   -2.1343   -0.7043  -23.7011   0   0   1
       203       1       1   -2.6156   -1.5404  -23.8024   0   0   1
       204       1       1   -2.7446   -1.2017  -24.7022   0   0   1
       205       1       1   -2.9550   -0.9445  -25.6135   0   0   1
       206       1       1   -3.3972   -0.0994  -25.7906   0   0   1
       207       1       1   -2.4981    0.2512  -25.8883   0   0   1
       208       1       1   -1.9157    0.7114  -25.2639   0   0   1
       209       1       1   -1.4540    0.2891  -26.0051   0   0   1
       210       1       1   -0.7075    0.1805  -26.6149   0   0   1
       211       1       1   -1.3488    0.1726  -27.3426   0   0   1
       212       1       1   -1.6560   -0.4548  -26.6696   0   0   1
       213       1       1   -2.2327    0.0126  -26.0453   0   0   1
       214       1       1   -1.6969   -0.4962  -25.4169   0   0   1
       215       1       1   -1.0443   -1.0152  -24.9211   0   0   1
       216       1       1   -0.6550   -0.2837  -24.4168   0   0   1
       217       1       1   -0.0214    0.3641  -24.0707   0   0   1
       218       1       1   -0.3199    1.0774  -23.4851   0   0   1
       219       1       1   -0.6970    1.4258  -22.6621   0   0   1
       220       1       1   -1.3286    1.5733  -23.3833   0   0   1
       221       1       1   -1.8289    2.1138  -22.7521   0   0   1
       222       1       1   -2.6204    1.9425  -23.2861   0   0   1
       223       1       1   -3.4194    1.3926  -23.2792   0   0   1
       224       1       1   -3.0639    0.5265  -23.0254   0   0   1
       225       1       1   -2.2225    0.8420  -22.6601   0   0   1
       226       1       1   -1.6080    1.1776  -21.9887   0   0   1
       227       1       1   -1.1068    0.5106  -21.4939   0   0   1
       228       1       1   -1.1262    0.2780  -20.5525   0   0   1
       229       1       1   -0.9268    0.4131  -19.6128   0   0   1
       230       1       1   -1.5635   -0.2486  -19.3002   0   0   1
       231       1       1   -0.6901   -0.6518  -19.1756   0   0   1
       232       1       1   -0.5239   -0.9479  -20.0842   0   0   1
       233       1       1   -1.3266   -0.4033  -20.0837   0   0   1
       234       1       1   -2.1973   -0.2444  -20.4805   0   0   1
       235       1       1   -2.8261    0.2048  -21.0667   0   0   1
       236       1       1   -3.1205    1.0862  -20.7884   0   0   1
       237       1       1   -3.3730    0.9121  -19.8682   0   0   1
       238       1       1   -2.4816    1.2834  -19.9600   0   0   1
       239       1       1   -1.5422    1.2310  -19.7241   0   0   1
       240       1       1   -1.5150    1.7538  -20.5407   0   0   1
       241       1       1   -2.4288    2.0098  -20.7413   0   0   1
       242       1       1   -2.8939    2.6157  -20.1435   0   0   1
       243       1       1   -3.6710    2.8172  -19.5990   0   0   1
       244       1       1   -3.3397    3.1169  -18.7380   0   0   1
       245       1       1   -3.3025    4.0804  -18.8442   0   0   1

Bonds

        1  1        1        2
        2  1        2        3
        3  1        3        4
        4  1        4        5
        5  1        5        6
        6  1        6        7
        7  1        7        8
        8  1        8        9
        9  1        9       10
       10  1       10       11
       11  1       11       12
       12  1       12       13
       13  1       13       14
       14  1       14       15
       15  1       15       16
       16  1       16       17
       17  1       17       18
       18  1       18       19
       19  1       19       20
       20  1       20       21
       21  1       21       22
       22  1       22       23
       23  1       23       24
       24  1       24       25
       25  1       25       26
       26  1       26       27
       27  1       27       28
       28  1       28       29
       29  1       29       30
       30  1       30       31
       31  1       31       32
       32  1       32       33
       33  1       33       34
       34  1       34       35
       35  1       35       36
       36  1       36       37
       37  1       37       38
       38  1       38       39
       39  1       39       40
       40  1       40       41
       41  1       41       42
       42  1       42       43
       43  1       43       44
       44  1       44       45
       45  1       45       46
       46  1       46       47
       47  1       47       48
       48  1       48       49
       49  1       49       50
       50  1       50       51
       51  1       51       52
       52  1       52       53
       53  1       53       54
       54  1       54       55
       55  1       55       56
       56  1       56       57
       57  1       57       58
       58  1       58       59
       59  1       59       60
       60  1       60       61
       61  1       61       62
       62  1       62       63
       63  1       63       64
       64  1       64       65
       65  1       65       66
       66  1       66       67
       67  1       67       68
       68  1       68       69
       69  1       69       70
       70  1       70       71
       71  1       71       72
       72  1       72       73
       73  1       73       74
       74  1       74       75
       75  1       75       76
       76  1       76       77
       77  1       77       78
       78  1       78       79
       79  1       79       80
       80  1       80       81
       81  1       81       82
       82  1       82       83
       83  1       83       84
       84  1       84       85
       85  1       85       86
       86  1       86       87
       87  1       87       88
       88  1       88       89
       89  1       89       90
       90  1       90       91
       91  1       91       92
       92  1       92       93
       93  1       93       94
       94  1       94       95
       95  1       95       96
       96  1       96       97
       97  1       97       98
       98  1       98       99
       99  1       99      100
      100  1      100      101
      101  1      101      102
      102  1      102      103
      103  1      103      104
      104  1      104      105
      105  1      105      106
      106  1      106      107
      107  1      107      108
      108  1      108      109
      109  1      109      110
      110  1      110      111
      111  1      111      112
      112  1      112      113
      113  1      113      114
      114  1      114      115
      115  1      115      116
      116  1      116      117
      117  1      117      118
      118  1      118      119
      119  1      119      120
      120  1      120      121
      121  1      121      122
      122  1      122      123
      123  1      123      124
      124  1      124      125
      125  1      125      126
      126  1      126      127
      127  1      127      128
      128  1      128      129
      129  1      129      130
      130  1      130      131
      131  1      131      132
      132  1      132      133
      133  1      133      134
      134  1      134      135
      135  1      135      136
      136  1      136      137
      137  1      137      138
      138  1      138      139
      139  1      139      140
      140  1      140      141
      141  1      141      142
      142  1      142      143
      143  1      143      144
      144  1      144      145
      145  1      145      146
      146  1      146      147
      147  1      147      148
      148  1      148      149
      149  1      149      150
      150  1      150      151
      151  1      151      152
      152  1      152      153
      153  1      153      154
      154  1      154      155
      155  1      155      156
      156  1      156      157
      157  1      157      158
      158  1      158      159
      159  1      159      160
      160  1      160      161
      161  1      161      162
      162  1      162      163
      163  1      163      164
      164  1      164      165
      165  1      165      166
      166  1      166      167
      167  1      167      168
      168  1      168      169
      169  1      169      170
      170  1      170      171
      171  1      171      172
      172  1      172      173
      173  1      173      174
      174  1      174      175
      175  1      175      176
      176  1      176      177
      177  1      177      178
      178  1      178      179
      179  1      179      180
      180  1      180      181
      181  1      181      182
      182  1      182      183
      183  1      183      184
      184  1      184      185
      185  1      185      186
      186  1      186      187
      187  1      187      188
      188  1      188      189
      189  1      189      190
      190  1      190      191
      191  1      191      192
      192  1      192      193
      193  1      193      194
      194  1      194      195
      195  1      195      196
      196  1      196      197
      197  1      197      198
      198  1      198      199
      199  1      199      200
      200  1      200      201
      201  1      201      202
      202  1      202      203
      203  1      203      204
      204  1      204      205
      205  1      205      206
      206  1      206      207
      207  1      207      208
      208  1      208      209
      209  1      209      210
      210  1      210      211
      211  1      211      212
      212  1      212      213
      213  1      213      214
      214  1      214      215
      215  1      215      216
      216  1      216      217
      217  1      217      218
      218  1      218      219
      219  1      219      220
      220  1      220      221
      221  1      221      222
      222  1      222      223
      223  1      223      224
      224  1      224      225
      225  1      225      226
      226  1      226      227
      227  1      227      228
      228  1      228      229
      229  1      229      230
      230  1      230      231
      231  1      231      232
      232  1      232      233
      233  1      233      234
      234  1      234      235
      235  1      235      236
      236  1      236      237
      237  1      237      238
      238  1      238      239
      239  1      239      240
      240  1      240      241
      241  1      241      242
      242  1      242      243
      243  1      243      244
      244  1      244      245
