ITEM: TIMESTEP
4000000
ITEM: NUMBER OF ATOMS
244
ITEM: BOX BOUNDS pp pp pp
-3.1244001000000001e+01 3.1244001000000001e+01
-3.1244001000000001e+01 3.1244001000000001e+01
-3.1244001000000001e+01 3.1244001000000001e+01
ITEM: ATOMS id type xs ys zs
83 1 0.473163 0.453035 0.000774649
84 1 0.479902 0.45631 0.0149257
85 1 0.494695 0.457509 0.0137245
203 1 0.779892 0.510195 0.0132277
204 1 0.791929 0.505802 0.0216492
199 1 0.748276 0.536025 0.00871364
198 1 0.741408 0.537889 0.0224487
200 1 0.761414 0.527769 0.0124647
201 1 0.775354 0.52883 0.00561826
102 1 0.520861 0.563541 0.0177591
194 1 0.718512 0.563655 0.00123039
197 1 0.738529 0.549691 0.0113303
113 1 0.495543 0.629885 0.014707
115 1 0.516308 0.619578 0.00313338
114 1 0.508545 0.632888 0.00739417
156 1 0.646278 0.626113 0.0223998
155 1 0.648749 0.636751 0.0105452
154 1 0.642743 0.650352 0.0154745
183 1 0.696734 0.647727 0.0075545
182 1 0.69756 0.656616 0.019843
184 1 0.710428 0.643315 0.0143151
86 1 0.495558 0.469289 0.0238076
87 1 0.484242 0.465494 0.0341278
88 1 0.488679 0.455415 0.0442954
90 1 0.509472 0.473898 0.0413116
94 1 0.536495 0.511967 0.0380978
95 1 0.524807 0.522049 0.0419403
207 1 0.75724 0.514393 0.0412197
206 1 0.769221 0.505229 0.0417917
205 1 0.778637 0.507264 0.0286316
103 1 0.508395 0.559651 0.0255638
100 1 0.520762 0.551548 0.0361315
101 1 0.530808 0.555717 0.0255769
99 1 0.529939 0.561634 0.0435838
104 1 0.506287 0.573623 0.0310481
105 1 0.500555 0.581181 0.0440884
164 1 0.696583 0.57591 0.0438511
158 1 0.663411 0.612086 0.0383418
112 1 0.488829 0.621285 0.0248392
111 1 0.486596 0.633045 0.0348229
157 1 0.65044 0.614607 0.0311736
180 1 0.685624 0.646277 0.037689
181 1 0.698404 0.654508 0.0355315
89 1 0.501913 0.462167 0.0456341
214 1 0.756057 0.468969 0.0675696
91 1 0.515511 0.484417 0.05091
92 1 0.52801 0.491902 0.0574003
210 1 0.735944 0.489453 0.0625067
93 1 0.529659 0.50087 0.0454837
209 1 0.739632 0.503468 0.0574577
208 1 0.751839 0.513098 0.0550155
96 1 0.53354 0.528695 0.0535067
97 1 0.541064 0.541783 0.0551928
98 1 0.533201 0.556196 0.0580595
166 1 0.6827 0.559304 0.0556966
165 1 0.698158 0.563028 0.0532409
163 1 0.709375 0.578792 0.0522558
106 1 0.496319 0.594879 0.0498785
107 1 0.496425 0.608452 0.0566558
160 1 0.679184 0.606051 0.047285
159 1 0.66667 0.611789 0.0534003
161 1 0.691711 0.597924 0.0491231
162 1 0.704116 0.593095 0.0580233
110 1 0.495158 0.624544 0.0456331
109 1 0.506803 0.633438 0.0510118
108 1 0.50593 0.620025 0.0594773
179 1 0.684818 0.640973 0.0517608
178 1 0.694934 0.639304 0.0642403
177 1 0.709848 0.642028 0.0622978
241 1 0.714729 0.382028 0.0821225
244 1 0.713096 0.397969 0.0798094
239 1 0.719438 0.406672 0.0893205
242 1 0.729608 0.389234 0.0823883
243 1 0.728048 0.403038 0.0761899
218 1 0.746855 0.443912 0.0846176
211 1 0.735635 0.476993 0.0721174
217 1 0.757258 0.456489 0.0830203
215 1 0.769833 0.464085 0.0747301
213 1 0.750934 0.474843 0.081171
216 1 0.771562 0.461387 0.0902128
212 1 0.740641 0.486514 0.0828927
167 1 0.681159 0.566748 0.0695699
168 1 0.688898 0.57664 0.0786556
169 1 0.699108 0.58907 0.0832504
170 1 0.695723 0.590927 0.0687206
171 1 0.693518 0.606256 0.0682353
172 1 0.708862 0.608628 0.0689504
173 1 0.7237 0.606366 0.0711552
175 1 0.712313 0.628714 0.0803768
174 1 0.722692 0.617301 0.0840485
176 1 0.71696 0.642725 0.0759172
238 1 0.705053 0.40765 0.093496
240 1 0.71715 0.392738 0.0937516
237 1 0.691258 0.414269 0.0958916
236 1 0.703597 0.421319 0.100363
235 1 0.718746 0.422805 0.10201
234 1 0.730553 0.429312 0.108946
221 1 0.760764 0.431702 0.111863
233 1 0.722448 0.439402 0.0998687
232 1 0.722839 0.454039 0.10002
220 1 0.764047 0.439425 0.0990968
219 1 0.751297 0.448128 0.0989015
231 1 0.719354 0.468799 0.107823
230 1 0.710434 0.47843 0.098289
229 1 0.710207 0.483942 0.11225
222 1 0.747577 0.438304 0.117795
223 1 0.749831 0.452403 0.12504
226 1 0.737619 0.473379 0.130778
224 1 0.760838 0.463942 0.122834
228 1 0.722618 0.483317 0.120989
227 1 0.736509 0.486758 0.12388
225 1 0.751559 0.477707 0.123819
3 1 0.363055 0.658924 0.787981
1 1 0.374125 0.645853 0.794519
4 1 0.36125 0.673157 0.781307
5 1 0.369267 0.675109 0.793469
2 1 0.36184 0.652251 0.801563
14 1 0.418782 0.655601 0.81761
6 1 0.369545 0.664439 0.805127
15 1 0.431522 0.665287 0.816152
17 1 0.430961 0.681074 0.816273
16 1 0.433248 0.672903 0.802378
11 1 0.390526 0.658694 0.825066
12 1 0.402075 0.654644 0.835157
8 1 0.363628 0.670515 0.834583
7 1 0.365926 0.667623 0.81957
10 1 0.38238 0.670236 0.830497
13 1 0.406934 0.66345 0.824965
22 1 0.429221 0.673339 0.835481
18 1 0.419893 0.690357 0.822596
19 1 0.419627 0.691075 0.837894
26 1 0.408046 0.658473 0.856524
25 1 0.414029 0.649247 0.845146
9 1 0.375496 0.666663 0.843939
24 1 0.424306 0.660621 0.851769
21 1 0.419166 0.676626 0.846461
23 1 0.43574 0.6694 0.848657
20 1 0.429995 0.688128 0.848933
29 1 0.383512 0.642148 0.879752
27 1 0.395355 0.657427 0.864943
28 1 0.39883 0.646191 0.875504
57 1 0.444624 0.543002 0.904053
56 1 0.443956 0.550011 0.889583
55 1 0.448948 0.561183 0.898675
54 1 0.438027 0.571689 0.903801
30 1 0.38521 0.655739 0.887852
31 1 0.394215 0.664247 0.898007
32 1 0.404138 0.676941 0.899075
67 1 0.42568 0.477195 0.931174
58 1 0.439454 0.536024 0.916732
59 1 0.445811 0.530194 0.930075
127 1 0.51593 0.5435 0.923946
128 1 0.53007 0.542671 0.929795
53 1 0.425177 0.575664 0.912199
52 1 0.418003 0.579058 0.925588
36 1 0.380046 0.66673 0.915635
37 1 0.383952 0.665213 0.930187
35 1 0.391574 0.675925 0.91539
33 1 0.40773 0.681147 0.913185
34 1 0.398537 0.685426 0.924848
70 1 0.413962 0.452833 0.951185
68 1 0.412255 0.470527 0.934832
69 1 0.42204 0.460746 0.940474
66 1 0.423238 0.487297 0.943134
65 1 0.437001 0.496254 0.944957
63 1 0.410646 0.504725 0.947704
61 1 0.430248 0.521201 0.943148
64 1 0.426087 0.504113 0.95219
62 1 0.420842 0.514865 0.95379
60 1 0.446383 0.522127 0.943903
129 1 0.532692 0.531608 0.940779
130 1 0.534779 0.54359 0.951631
134 1 0.558141 0.536475 0.950838
135 1 0.573257 0.535786 0.952708
48 1 0.390437 0.563963 0.94517
49 1 0.404851 0.567816 0.950622
126 1 0.518982 0.551215 0.937628
125 1 0.508873 0.556767 0.94745
131 1 0.537786 0.558865 0.950326
132 1 0.552173 0.552997 0.944668
47 1 0.376425 0.570014 0.942839
46 1 0.384953 0.576399 0.953699
50 1 0.404935 0.580367 0.939884
45 1 0.396512 0.586521 0.951186
51 1 0.42001 0.576882 0.940893
43 1 0.380882 0.598588 0.935072
42 1 0.369111 0.607328 0.940628
44 1 0.394177 0.60017 0.943305
144 1 0.612468 0.610151 0.954542
40 1 0.360168 0.632771 0.937487
41 1 0.370745 0.62263 0.937985
145 1 0.614854 0.623579 0.947866
39 1 0.373684 0.640118 0.933366
38 1 0.373142 0.654957 0.934392
71 1 0.420871 0.449564 0.964974
79 1 0.449379 0.434248 0.970457
72 1 0.408697 0.458971 0.968097
73 1 0.41712 0.469724 0.97358
136 1 0.580677 0.538142 0.965285
123 1 0.498794 0.561523 0.962339
124 1 0.51163 0.552446 0.961892
133 1 0.557504 0.549369 0.958675
138 1 0.573055 0.559239 0.965899
137 1 0.57297 0.547493 0.975576
122 1 0.502643 0.576284 0.959923
139 1 0.572758 0.570695 0.955277
140 1 0.572379 0.583086 0.963016
141 1 0.58685 0.585488 0.959281
142 1 0.599404 0.585733 0.969178
190 1 0.716133 0.590395 0.97699
120 1 0.499842 0.604094 0.965655
121 1 0.504931 0.591504 0.957636
143 1 0.604764 0.597687 0.95985
189 1 0.727622 0.599238 0.974377
146 1 0.617028 0.624627 0.962641
147 1 0.631892 0.62856 0.962866
148 1 0.634031 0.620539 0.975577
80 1 0.453367 0.431173 0.984737
78 1 0.449491 0.447438 0.978515
77 1 0.438141 0.444724 0.988232
82 1 0.466259 0.452096 0.987183
81 1 0.464536 0.437337 0.994222
76 1 0.427194 0.455503 0.988019
75 1 0.434337 0.469002 0.991583
74 1 0.423422 0.478316 0.985027
202 1 0.774689 0.514509 0.999758
193 1 0.726993 0.564896 0.988401
195 1 0.72497 0.550085 0.998276
196 1 0.740545 0.54838 0.996461
191 1 0.716351 0.574987 0.980579
192 1 0.730795 0.579933 0.986265
119 1 0.490553 0.606456 0.977651
187 1 0.724207 0.612924 0.999689
188 1 0.730756 0.604857 0.988012
118 1 0.494499 0.620161 0.983561
117 1 0.495248 0.633527 0.991417
116 1 0.509872 0.629442 0.992676
151 1 0.621659 0.633141 0.993809
150 1 0.633425 0.625296 0.999799
149 1 0.637624 0.614679 0.989836
186 1 0.713584 0.624174 0.994473
152 1 0.631698 0.645513 0.988905
153 1 0.642332 0.652522 0.999748
185 1 0.712469 0.638639 0.999437
ITEM: TIMESTEP
4010000
ITEM: NUMBER OF ATOMS
244
ITEM: BOX BOUNDS pp pp pp
-3.1244001000000001e+01 3.1244001000000001e+01
-3.1244001000000001e+01 3.1244001000000001e+01
-3.1244001000000001e+01 3.1244001000000001e+01
ITEM: ATOMS id type xs ys zs
244 1 0.734798 0.499946 0.021035
102 1 0.526434 0.545252 0.00615021
113 1 0.544751 0.539912 0.00541286
120 1 0.55635 0.539367 0.0203463
115 1 0.56362 0.523909 0.0078299
116 1 0.569583 0.537067 0.00226338
191 1 0.635449 0.540151 0.0133816
192 1 0.651024 0.538827 0.016978
193 1 0.661305 0.541815 0.0058338
83 1 0.461496 0.561349 0.00273554
103 1 0.536741 0.554612 0.000160069
100 1 0.52289 0.564203 0.0117156
101 1 0.525935 0.551934 0.0212207
106 1 0.563194 0.567332 0.0114635
119 1 0.559378 0.553566 0.0170564
104 1 0.546453 0.563907 0.00912902
112 1 0.554057 0.551306 0.000901188
123 1 0.581254 0.546872 0.0201389
134 1 0.590477 0.56402 0.0180251
118 1 0.569864 0.552575 0.00582485
117 1 0.583242 0.546279 0.00140988
124 1 0.597121 0.547927 0.0174656
173 1 0.609581 0.549226 0.0052737
172 1 0.608516 0.560892 0.0163374
135 1 0.59932 0.567418 0.00530183
175 1 0.632268 0.565012 0.0159393
174 1 0.62237 0.553927 0.0115777
168 1 0.645725 0.55464 0.0197507
190 1 0.639419 0.552207 0.0031926
167 1 0.659257 0.56182 0.0182768
194 1 0.672456 0.549931 0.012852
97 1 0.522277 0.584422 0.00114121
99 1 0.529413 0.57743 0.0162323
98 1 0.536983 0.584526 0.00489133
109 1 0.557864 0.579026 0.00183237
105 1 0.552784 0.572296 0.0209144
107 1 0.57724 0.570155 0.00562548
137 1 0.588591 0.583936 0.0161693
138 1 0.573413 0.581962 0.0152173
136 1 0.602742 0.578752 0.0155894
146 1 0.616745 0.586637 0.00696301
145 1 0.625811 0.582081 0.0191034
176 1 0.643217 0.575035 0.020691
177 1 0.647 0.589061 0.0186475
164 1 0.645107 0.576147 0.00185865
156 1 0.656283 0.590843 0.00339184
166 1 0.669026 0.573295 0.0193773
165 1 0.659244 0.574431 0.00835287
182 1 0.676588 0.572537 0.00194813
179 1 0.673422 0.587956 0.0120887
139 1 0.562999 0.591598 0.0193658
147 1 0.605803 0.595907 0.0126658
157 1 0.643356 0.596541 2.07672e-05
178 1 0.661967 0.594396 0.0192397
219 1 0.740827 0.442151 0.0356049
216 1 0.728892 0.454186 0.0441737
220 1 0.754982 0.446652 0.0401547
240 1 0.715943 0.466335 0.0424852
218 1 0.742847 0.458254 0.0356444
217 1 0.728818 0.463812 0.0326315
221 1 0.759885 0.461734 0.0402378
225 1 0.754957 0.47602 0.0449866
201 1 0.693056 0.497658 0.030808
206 1 0.711887 0.481995 0.0234701
207 1 0.725906 0.481553 0.0302678
205 1 0.709851 0.497682 0.0243167
241 1 0.708091 0.478364 0.039791
242 1 0.715733 0.491504 0.0412659
208 1 0.738286 0.48747 0.0380718
203 1 0.701055 0.517363 0.0330875
202 1 0.688334 0.51098 0.0264014
200 1 0.697135 0.505584 0.0436199
204 1 0.713369 0.513772 0.0257256
243 1 0.72512 0.501022 0.0335259
122 1 0.585614 0.532027 0.0231668
121 1 0.570557 0.533275 0.02375
125 1 0.602798 0.541883 0.030378
196 1 0.675326 0.52582 0.0276027
195 1 0.670113 0.541114 0.0243612
197 1 0.690381 0.528592 0.0343361
130 1 0.558271 0.558472 0.0344387
129 1 0.56042 0.547153 0.0448889
127 1 0.586956 0.54741 0.036915
133 1 0.583708 0.567041 0.0317889
128 1 0.573492 0.554225 0.0415758
126 1 0.5983 0.557016 0.032788
170 1 0.624638 0.55104 0.0281879
171 1 0.619456 0.565485 0.0267728
169 1 0.63637 0.559451 0.031151
131 1 0.565421 0.569319 0.0429023
140 1 0.561609 0.586721 0.0337833
132 1 0.568874 0.570247 0.0285586
141 1 0.575419 0.584712 0.039224
142 1 0.589352 0.585216 0.0328971
143 1 0.605083 0.586062 0.0329646
144 1 0.620935 0.589724 0.0314886
213 1 0.741746 0.444286 0.0648621
239 1 0.719551 0.470486 0.0567579
215 1 0.729687 0.455409 0.0596538
210 1 0.739109 0.465878 0.0510095
238 1 0.729993 0.476617 0.0659856
209 1 0.730081 0.476724 0.0454768
211 1 0.751637 0.45811 0.0558236
224 1 0.762432 0.476214 0.0580738
222 1 0.772776 0.462903 0.0491888
230 1 0.722355 0.490802 0.0587299
229 1 0.73459 0.497383 0.0531477
226 1 0.74521 0.483561 0.0550323
233 1 0.749993 0.494895 0.0664635
223 1 0.772329 0.477589 0.0458731
227 1 0.755695 0.49357 0.0494133
199 1 0.686498 0.516343 0.0468272
228 1 0.748059 0.506858 0.0513245
232 1 0.740113 0.506663 0.067529
198 1 0.686024 0.532118 0.0483007
214 1 0.731838 0.451894 0.0741824
212 1 0.756133 0.451873 0.0692804
236 1 0.74809 0.466495 0.0827751
237 1 0.740082 0.465274 0.0690091
235 1 0.7589 0.471717 0.073674
231 1 0.731009 0.493976 0.0715875
234 1 0.747267 0.481983 0.0724097
2 1 0.412727 0.599397 0.862494
5 1 0.38397 0.606723 0.869415
1 1 0.400547 0.608268 0.865163
4 1 0.393624 0.594694 0.871887
6 1 0.392607 0.610623 0.881515
3 1 0.407992 0.591206 0.875434
24 1 0.411511 0.606888 0.883877
10 1 0.381791 0.635807 0.879451
7 1 0.392786 0.622688 0.870427
8 1 0.396026 0.627738 0.88439
21 1 0.420781 0.636317 0.883199
22 1 0.413194 0.625455 0.873079
11 1 0.381721 0.648192 0.870451
9 1 0.395499 0.638068 0.872596
13 1 0.392168 0.649636 0.884732
12 1 0.394904 0.655311 0.871061
20 1 0.425058 0.651241 0.880664
19 1 0.409951 0.651007 0.883444
14 1 0.382638 0.662099 0.881765
26 1 0.387914 0.60627 0.904704
25 1 0.401924 0.603417 0.896039
35 1 0.372004 0.631794 0.908918
36 1 0.374376 0.631718 0.89341
27 1 0.382749 0.615774 0.893888
38 1 0.392305 0.636018 0.900948
28 1 0.396656 0.618191 0.898791
23 1 0.411915 0.621403 0.887399
40 1 0.414206 0.624117 0.904289
37 1 0.379967 0.644768 0.898695
16 1 0.394704 0.654536 0.901891
39 1 0.408052 0.636788 0.900661
17 1 0.410055 0.657933 0.901044
18 1 0.418821 0.647752 0.895297
15 1 0.386466 0.664826 0.896416
72 1 0.461056 0.558662 0.923095
73 1 0.475104 0.551132 0.926645
34 1 0.365332 0.632779 0.922033
30 1 0.385399 0.615324 0.919719
31 1 0.378459 0.623887 0.931065
32 1 0.383733 0.635418 0.923551
29 1 0.394233 0.625558 0.913345
42 1 0.404912 0.628487 0.924685
41 1 0.415365 0.634365 0.914856
33 1 0.371562 0.645717 0.917202
75 1 0.461324 0.540618 0.949203
74 1 0.4637 0.542624 0.933947
71 1 0.448503 0.560439 0.931873
77 1 0.441271 0.550922 0.94529
76 1 0.456888 0.554569 0.94489
69 1 0.470692 0.564778 0.945582
57 1 0.434565 0.586837 0.943678
59 1 0.453566 0.568429 0.954335
58 1 0.447716 0.57979 0.947357
70 1 0.458444 0.570617 0.93737
46 1 0.414465 0.606756 0.943591
43 1 0.399304 0.617956 0.934535
45 1 0.40468 0.616526 0.950401
44 1 0.413327 0.624463 0.940113
79 1 0.448646 0.538388 0.964964
67 1 0.475289 0.545273 0.967166
78 1 0.448603 0.552844 0.959029
54 1 0.440319 0.567405 0.966485
60 1 0.456001 0.566707 0.970885
80 1 0.458628 0.546634 0.973096
68 1 0.468126 0.555735 0.958534
63 1 0.483952 0.561976 0.966954
64 1 0.498896 0.559007 0.962053
162 1 0.653844 0.566645 0.976913
51 1 0.424398 0.587484 0.973292
56 1 0.433438 0.580184 0.957262
55 1 0.446795 0.580597 0.966131
61 1 0.470632 0.569739 0.976458
160 1 0.630895 0.581744 0.973165
161 1 0.6389 0.568623 0.97226
153 1 0.651144 0.586237 0.968579
49 1 0.429283 0.610626 0.969369
47 1 0.418124 0.603067 0.957413
50 1 0.432444 0.59645 0.963052
159 1 0.637479 0.594727 0.97539
48 1 0.420032 0.617937 0.958865
66 1 0.485433 0.543476 0.97749
114 1 0.554071 0.530838 0.998107
81 1 0.449161 0.552429 0.983542
84 1 0.468994 0.551507 0.99498
82 1 0.457093 0.5648 0.988066
62 1 0.47665 0.556802 0.978932
86 1 0.478176 0.565189 0.99192
85 1 0.484451 0.550928 0.993427
65 1 0.496884 0.554805 0.977307
87 1 0.491734 0.568097 0.997763
93 1 0.521685 0.552958 0.987233
92 1 0.506896 0.555668 0.991763
94 1 0.521161 0.567314 0.982771
110 1 0.550332 0.567156 0.994237
111 1 0.548467 0.554608 0.987286
189 1 0.628168 0.551065 0.994027
188 1 0.624218 0.567024 0.999014
187 1 0.625917 0.562962 0.983387
186 1 0.64048 0.566849 0.988713
185 1 0.643128 0.55328 0.983934
184 1 0.657409 0.554301 0.990669
183 1 0.669362 0.55962 0.999012
52 1 0.42939 0.574235 0.97814
53 1 0.443396 0.570909 0.981044
88 1 0.489129 0.572721 0.981283
89 1 0.494713 0.586478 0.9781
90 1 0.503497 0.577914 0.987797
91 1 0.508317 0.569243 0.999133
96 1 0.529691 0.570991 0.998201
95 1 0.535927 0.569644 0.984456
108 1 0.56818 0.570402 0.993583
149 1 0.602451 0.58387 0.988954
151 1 0.633453 0.585543 0.989577
150 1 0.617647 0.587803 0.9889
163 1 0.656948 0.572028 0.992282
152 1 0.647713 0.580722 0.982405
181 1 0.668537 0.584504 0.99427
154 1 0.66345 0.590325 0.977333
148 1 0.59789 0.593713 0.999822
155 1 0.654589 0.594659 0.988412
158 1 0.636916 0.604107 0.987518
180 1 0.681223 0.591717 0.998985
ITEM: TIMESTEP
4020000
ITEM: NUMBER OF ATOMS
244
ITEM: BOX BOUNDS pp pp pp
-3.1244001000000001e+01 3.1244001000000001e+01
-3.1244001000000001e+01 3.1244001000000001e+01
-3.1244001000000001e+01 3.1244001000000001e+01
ITEM: ATOMS id type xs ys zs
223 1 0.701382 0.426206 0.0192242
225 1 0.694989 0.447975 0.0109017
221 1 0.710567 0.444015 0.0200978
222 1 0.706996 0.43508 0.00895526
226 1 0.706785 0.451039 0.0009196
212 1 0.698252 0.47015 0.00847393
228 1 0.715587 0.470121 0.0133303
229 1 0.729475 0.469475 0.0220409
200 1 0.679158 0.499708 0.0152662
213 1 0.702302 0.479831 0.020317
205 1 0.69748 0.495264 0.017885
211 1 0.69248 0.483745 0.00657437
244 1 0.715978 0.488287 0.0160297
199 1 0.672 0.513209 0.0127371
201 1 0.689741 0.508745 0.0218808
207 1 0.711945 0.503576 0.004862
206 1 0.70776 0.506474 0.0191401
124 1 0.583343 0.538895 0.00777013
125 1 0.595033 0.535108 0.0177654
141 1 0.611138 0.539426 0.00945938
142 1 0.622161 0.543746 0.000308172
196 1 0.642402 0.524336 0.00636189
164 1 0.639606 0.542184 0.00873677
165 1 0.64627 0.536385 0.0218415
193 1 0.667088 0.537767 0.000930596
138 1 0.571605 0.552949 0.0015201
172 1 0.609981 0.56625 0.0220251
126 1 0.598234 0.549462 0.021745
175 1 0.612587 0.55842 0.00781722
127 1 0.592012 0.560116 0.0133237
140 1 0.600767 0.549115 0.00265584
174 1 0.624754 0.55454 0.0157295
179 1 0.633897 0.567966 0.0109924
162 1 0.646499 0.564609 0.00162743
163 1 0.643239 0.555775 0.0143522
181 1 0.654804 0.566819 0.0192836
192 1 0.655311 0.547473 0.00704516
182 1 0.663911 0.56645 0.00804966
63 1 0.474489 0.575284 0.00621909
64 1 0.471015 0.589019 0.00136178
103 1 0.528207 0.590524 0.0227048
104 1 0.542587 0.585052 0.0206339
135 1 0.556766 0.581474 0.00327499
131 1 0.58149 0.572252 0.0137157
134 1 0.571143 0.583701 0.00933821
132 1 0.589332 0.585166 0.0142821
176 1 0.61332 0.574368 0.00794499
148 1 0.597085 0.573937 0.00561864
171 1 0.622522 0.575046 0.0220571
180 1 0.645497 0.577677 0.0134315
100 1 0.495552 0.595322 0.0148371
98 1 0.47866 0.604662 0.00223906
99 1 0.490372 0.609412 0.0100923
101 1 0.510732 0.593268 0.00980145
102 1 0.526658 0.595691 0.00802276
105 1 0.54511 0.594339 0.00828769
224 1 0.695676 0.439747 0.0230413
235 1 0.699212 0.445298 0.0432854
220 1 0.722865 0.451611 0.0251806
233 1 0.715261 0.438725 0.0416581
216 1 0.682974 0.465767 0.0328609
217 1 0.698799 0.466638 0.0304827
219 1 0.713256 0.454979 0.0364675
218 1 0.713025 0.470795 0.0323843
231 1 0.726689 0.4577 0.0451914
230 1 0.731047 0.47045 0.037987
215 1 0.679797 0.480702 0.0282224
214 1 0.69429 0.482006 0.033281
243 1 0.719393 0.486104 0.0302743
239 1 0.708192 0.482817 0.0420754
204 1 0.705426 0.494955 0.0306803
203 1 0.693697 0.502332 0.036894
202 1 0.683021 0.513468 0.0364055
242 1 0.717561 0.500044 0.0388606
166 1 0.635699 0.533835 0.0315305
167 1 0.623523 0.539478 0.0252187
130 1 0.578397 0.563343 0.0257666
173 1 0.613911 0.553209 0.027371
168 1 0.629333 0.54888 0.0365212
170 1 0.621306 0.566323 0.0345577
169 1 0.634193 0.561102 0.0288367
129 1 0.581806 0.574482 0.0354559
133 1 0.577257 0.584188 0.0234097
128 1 0.59298 0.572051 0.0251776
234 1 0.710736 0.446709 0.0545887
232 1 0.728224 0.443 0.0494414
236 1 0.69848 0.461546 0.0469002
237 1 0.691925 0.4752 0.047172
238 1 0.697195 0.489847 0.0490902
240 1 0.715315 0.481198 0.055298
241 1 0.712834 0.496778 0.0527902
39 1 0.440921 0.58726 0.931073
38 1 0.453076 0.582349 0.923916
2 1 0.468945 0.588093 0.920278
41 1 0.427208 0.597309 0.922824
42 1 0.411396 0.594566 0.922234
44 1 0.411848 0.609844 0.931246
40 1 0.440578 0.592151 0.916727
5 1 0.451596 0.610002 0.917543
1 1 0.468981 0.601859 0.915096
4 1 0.458261 0.602084 0.92833
17 1 0.40106 0.632482 0.924882
16 1 0.41517 0.633764 0.91743
15 1 0.422558 0.620778 0.913427
14 1 0.427995 0.622082 0.928112
6 1 0.441946 0.622971 0.917632
10 1 0.461706 0.625258 0.931194
18 1 0.403852 0.646598 0.931592
13 1 0.425199 0.637223 0.931636
12 1 0.440422 0.641341 0.927961
72 1 0.445316 0.553898 0.953354
71 1 0.461787 0.554285 0.952823
37 1 0.454282 0.580666 0.938599
35 1 0.468178 0.570225 0.940823
33 1 0.476332 0.587218 0.950182
36 1 0.455034 0.570246 0.949775
50 1 0.458232 0.590707 0.953143
34 1 0.480743 0.573623 0.948674
43 1 0.416382 0.596816 0.937544
46 1 0.42295 0.609003 0.947955
49 1 0.449758 0.597417 0.942253
48 1 0.438539 0.607208 0.93956
54 1 0.434171 0.59435 0.948429
3 1 0.466128 0.591115 0.935758
27 1 0.467058 0.603932 0.948599
32 1 0.483186 0.597154 0.939515
31 1 0.493529 0.595891 0.950923
45 1 0.408735 0.614427 0.945629
20 1 0.41095 0.63092 0.942317
8 1 0.451549 0.614739 0.944688
7 1 0.446057 0.620107 0.932429
47 1 0.434596 0.620359 0.945522
23 1 0.450258 0.635169 0.953918
11 1 0.45124 0.635061 0.937427
9 1 0.465525 0.621129 0.946759
19 1 0.40452 0.643827 0.946817
21 1 0.423061 0.636832 0.950658
22 1 0.437403 0.637245 0.945373
120 1 0.559048 0.540227 0.972719
73 1 0.449486 0.54639 0.96547
75 1 0.451872 0.566219 0.966303
70 1 0.47096 0.561522 0.962172
74 1 0.45915 0.554555 0.973318
69 1 0.485818 0.56463 0.962324
118 1 0.551243 0.556954 0.971929
154 1 0.59565 0.559289 0.972002
52 1 0.436609 0.589596 0.964773
51 1 0.44555 0.582389 0.955177
76 1 0.457749 0.579879 0.96778
60 1 0.476219 0.578341 0.971728
30 1 0.489783 0.585037 0.960597
68 1 0.495835 0.572067 0.972063
110 1 0.510512 0.588602 0.97233
109 1 0.522836 0.579579 0.973217
108 1 0.536979 0.584406 0.97431
153 1 0.606395 0.569371 0.974586
158 1 0.627075 0.568977 0.976231
187 1 0.653704 0.571234 0.972455
186 1 0.667607 0.571047 0.96688
185 1 0.677427 0.581494 0.971826
53 1 0.422143 0.594745 0.958627
55 1 0.442593 0.6023 0.957969
57 1 0.449292 0.608182 0.972896
26 1 0.464254 0.610603 0.962362
58 1 0.461852 0.600347 0.977163
28 1 0.479244 0.608002 0.956927
29 1 0.478495 0.594759 0.965735
94 1 0.496407 0.599985 0.970844
85 1 0.483383 0.607806 0.97581
91 1 0.514949 0.603424 0.97532
93 1 0.508424 0.601085 0.960316
92 1 0.522763 0.595379 0.965642
56 1 0.441245 0.616661 0.962429
24 1 0.465157 0.63634 0.95732
25 1 0.457923 0.624116 0.963637
86 1 0.489623 0.622233 0.973406
87 1 0.500758 0.61498 0.963688
227 1 0.714811 0.464393 0.999632
210 1 0.696561 0.496883 0.999126
208 1 0.711784 0.490055 0.998678
197 1 0.650965 0.515553 0.998477
198 1 0.666367 0.51616 0.997914
209 1 0.707159 0.501267 0.98909
121 1 0.569723 0.537099 0.982434
123 1 0.584354 0.538657 0.99192
143 1 0.633669 0.534395 0.994873
195 1 0.650275 0.533273 0.996372
194 1 0.663056 0.530077 0.98878
61 1 0.473991 0.566706 0.980423
67 1 0.502561 0.567217 0.984263
115 1 0.540794 0.565522 0.994958
114 1 0.532556 0.562676 0.982433
116 1 0.555266 0.56101 0.989666
119 1 0.563812 0.552774 0.978262
137 1 0.566976 0.567603 0.997941
122 1 0.581893 0.545648 0.977602
139 1 0.586395 0.554568 0.999292
155 1 0.59606 0.552334 0.98599
156 1 0.610752 0.546738 0.9862
147 1 0.601715 0.566725 0.993795
146 1 0.616144 0.562454 0.9928
145 1 0.630713 0.557844 0.997003
144 1 0.630167 0.546975 0.986914
157 1 0.618073 0.556999 0.977523
191 1 0.6462 0.548242 0.993854
190 1 0.651114 0.556614 0.98131
189 1 0.661918 0.555172 0.991287
188 1 0.665953 0.566689 0.9815
78 1 0.448104 0.590822 0.978465
77 1 0.454304 0.576792 0.982802
62 1 0.467384 0.570004 0.994214
59 1 0.468761 0.587761 0.981532
66 1 0.49208 0.568629 0.995731
65 1 0.481197 0.580113 0.992086
95 1 0.487837 0.589866 0.97892
111 1 0.502287 0.584412 0.985232
113 1 0.52021 0.570815 0.988239
112 1 0.515612 0.585149 0.992729
106 1 0.538615 0.582781 0.999077
117 1 0.549384 0.570664 0.978995
107 1 0.54667 0.584349 0.986452
151 1 0.590862 0.583316 0.985079
136 1 0.568827 0.582311 0.993635
149 1 0.584249 0.571407 0.997181
150 1 0.580173 0.570508 0.982921
152 1 0.606638 0.581651 0.983151
177 1 0.617779 0.581126 0.995412
178 1 0.631382 0.575725 0.998819
159 1 0.629181 0.583216 0.981709
161 1 0.645308 0.571796 0.988244
160 1 0.644101 0.585715 0.979827
183 1 0.663935 0.575388 0.995558
184 1 0.667757 0.583247 0.983293
79 1 0.435279 0.596803 0.983776
80 1 0.447638 0.60577 0.988847
81 1 0.454732 0.595186 0.997204
82 1 0.463429 0.608099 0.992805
97 1 0.478283 0.597788 0.988993
96 1 0.492971 0.601672 0.987635
90 1 0.510686 0.603553 0.990711
83 1 0.465386 0.618449 0.981498
84 1 0.480071 0.615486 0.988117
88 1 0.502765 0.613802 0.979208
89 1 0.514288 0.619148 0.987422
ITEM: TIMESTEP
4030000
ITEM: NUMBER OF ATOMS
244
ITEM: BOX BOUNDS pp pp pp
-3.1244001000000001e+01 3.1244001000000001e+01
-3.1244001000000001e+01 3.1244001000000001e+01
-3.1244001000000001e+01 3.1244001000000001e+01
ITEM: ATOMS id type xs ys zs
213 1 0.616692 0.493065 0.00814032
214 1 0.627928 0.486636 0.0163301
161 1 0.581979 0.511463 0.00561017
163 1 0.605958 0.507345 0.0107657
162 1 0.594014 0.517836 0.0103884
211 1 0.630743 0.518361 0.00225103
167 1 0.631604 0.52178 0.022331
212 1 0.626811 0.503239 0.00390361
166 1 0.620855 0.514375 0.0154024
170 1 0.638476 0.503402 0.0186994
168 1 0.646151 0.519151 0.0183486
169 1 0.653814 0.505366 0.0157382
210 1 0.643231 0.508578 0.0040036
230 1 0.672954 0.501732 0.0138539
221 1 0.663696 0.518487 0.0224518
222 1 0.665168 0.517704 0.0071497
231 1 0.681281 0.513842 0.0184475
233 1 0.685764 0.52236 0.00288675
232 1 0.69258 0.509624 0.0090884
144 1 0.561292 0.526883 0.0095821
138 1 0.547389 0.537435 0.0123016
137 1 0.560479 0.544805 0.010439
145 1 0.576411 0.525585 0.014684
146 1 0.575102 0.537149 0.0049677
165 1 0.610153 0.526124 0.011
183 1 0.602687 0.540486 0.0153429
189 1 0.628686 0.534523 0.0103933
190 1 0.620696 0.545353 0.0178585
188 1 0.6154 0.539925 0.00469343
207 1 0.64582 0.536294 0.00347465
203 1 0.646685 0.544263 0.0216252
241 1 0.661297 0.534177 0.0134116
240 1 0.662337 0.542883 0.00105124
235 1 0.681508 0.530832 0.0183058
236 1 0.678392 0.538544 0.00537775
234 1 0.695949 0.528377 0.0121779
116 1 0.520335 0.559579 0.00822348
68 1 0.513595 0.547356 0.000695026
95 1 0.502911 0.56144 0.00331814
117 1 0.530581 0.54888 0.0104445
118 1 0.536448 0.561972 0.0142394
154 1 0.547831 0.550937 0.00156278
153 1 0.556218 0.560564 0.0107796
136 1 0.572777 0.54753 0.0186221
135 1 0.587607 0.552145 0.0194451
134 1 0.588462 0.5495 0.0041133
152 1 0.57027 0.564328 0.0105098
132 1 0.593571 0.565031 0.000951735
184 1 0.602688 0.554564 0.012358
191 1 0.620207 0.559707 0.0152434
205 1 0.644479 0.553417 0.00413797
204 1 0.654292 0.557416 0.0156994
239 1 0.664268 0.55824 0.000625321
96 1 0.503322 0.576575 0.00624757
97 1 0.515131 0.582052 0.0136604
121 1 0.534262 0.587079 0.0167751
120 1 0.543635 0.575709 0.0196501
98 1 0.528069 0.575927 0.00788947
128 1 0.558539 0.58024 0.0126094
119 1 0.546087 0.570101 0.0050911
130 1 0.577506 0.580825 0.0123839
131 1 0.589144 0.570418 0.0151183
101 1 0.550357 0.602187 0.0082042
129 1 0.567274 0.592874 0.0154604
173 1 0.612012 0.499842 0.0283765
216 1 0.648269 0.494127 0.0304489
215 1 0.640056 0.482449 0.0242415
217 1 0.662235 0.489348 0.0269624
218 1 0.66631 0.488864 0.0418532
141 1 0.55227 0.522077 0.0388402
142 1 0.552948 0.515159 0.0257976
174 1 0.612563 0.512635 0.0389842
176 1 0.602279 0.520852 0.0256599
172 1 0.625916 0.505957 0.0306457
171 1 0.640623 0.509126 0.0344064
220 1 0.659108 0.510595 0.035592
143 1 0.558958 0.530243 0.0247405
140 1 0.550764 0.537726 0.0375558
177 1 0.590839 0.532339 0.0232327
178 1 0.587178 0.523712 0.0362442
180 1 0.583 0.543081 0.0358373
179 1 0.574749 0.531906 0.0300869
181 1 0.597709 0.540587 0.0416313
182 1 0.609304 0.539503 0.0293399
175 1 0.616157 0.52455 0.0313275
200 1 0.630333 0.524744 0.0402744
201 1 0.627754 0.537657 0.0312337
202 1 0.641642 0.533637 0.0324882
196 1 0.653449 0.541229 0.0421557
242 1 0.661957 0.534884 0.0291041
124 1 0.526291 0.566321 0.0267777
126 1 0.547853 0.563614 0.0299009
139 1 0.545784 0.545904 0.0251304
192 1 0.613738 0.556773 0.0290629
193 1 0.62354 0.551134 0.0385372
194 1 0.632515 0.559952 0.0298507
195 1 0.641753 0.550398 0.0373563
243 1 0.661366 0.550211 0.0296463
244 1 0.670915 0.562335 0.0299841
123 1 0.525002 0.582201 0.0301751
125 1 0.536413 0.571085 0.03757
127 1 0.560189 0.570371 0.0245099
122 1 0.535002 0.593475 0.0304867
219 1 0.655161 0.499346 0.0465523
199 1 0.63369 0.513338 0.0499231
198 1 0.646617 0.519739 0.046724
197 1 0.644256 0.533929 0.051999
36 1 0.490817 0.587122 0.905533
35 1 0.506246 0.590141 0.903326
37 1 0.489578 0.602024 0.901507
33 1 0.515287 0.604888 0.90757
34 1 0.505006 0.604312 0.897579
9 1 0.503925 0.62203 0.9087
6 1 0.529685 0.614965 0.903912
53 1 0.494848 0.584555 0.924038
54 1 0.50518 0.573034 0.924002
39 1 0.474434 0.612538 0.916552
40 1 0.459893 0.609046 0.923428
38 1 0.479828 0.598942 0.912853
52 1 0.497605 0.596829 0.916986
58 1 0.479514 0.59338 0.930638
10 1 0.491944 0.613586 0.913372
32 1 0.514704 0.595932 0.921204
51 1 0.503556 0.605737 0.927983
5 1 0.532859 0.606356 0.915686
4 1 0.528691 0.601847 0.928809
12 1 0.484086 0.62434 0.929448
11 1 0.489764 0.629518 0.9163
8 1 0.514532 0.618805 0.919419
7 1 0.528994 0.622857 0.916681
75 1 0.529856 0.53829 0.950033
81 1 0.497872 0.561206 0.944373
80 1 0.505678 0.551328 0.953689
78 1 0.514129 0.565933 0.95332
76 1 0.537844 0.550935 0.950955
77 1 0.523522 0.556588 0.946898
57 1 0.474795 0.579542 0.934393
56 1 0.48858 0.577939 0.940119
1 1 0.520406 0.579934 0.942648
31 1 0.506893 0.590882 0.933486
30 1 0.503246 0.589862 0.949184
55 1 0.504151 0.575789 0.9391
2 1 0.534686 0.587169 0.944475
41 1 0.470738 0.609116 0.933035
42 1 0.460178 0.604366 0.942732
44 1 0.472909 0.591409 0.949
43 1 0.473808 0.606455 0.94905
13 1 0.488007 0.610859 0.9371
59 1 0.48776 0.594545 0.943269
3 1 0.522519 0.596875 0.942355
50 1 0.513958 0.611895 0.936858
49 1 0.502132 0.609928 0.945797
16 1 0.471927 0.623303 0.942856