LAMMPS (20 Nov 2019)
#
#
# brush of fene-chains
# ./xmovie -scale dump.brush
# ./lmp_mac2 < in.brush # In file name zhi denotes the separation distance which is to be changed to change file name

# brush of fene-chains
#for i in {1..300}; do lmp -in in.single_chain ; cc -O3 Rg2_lammps.c -lm; ./a.out;python3 handle.py;gfortran chain.f -o chain; ./chain<def.chain>data.test;

units           lj
atom_style      bond

# periodic box in x,y, fixed in z
boundary        p p p


# input data
read_data       data.test  # change data file name
  orthogonal box = (-31.2866 -31.2866 -31.2866) to (31.2866 31.2866 31.2866)
  1 by 1 by 1 MPI processor grid
  reading atoms ...
  245 atoms
  scanning bonds ...
  1 = max bonds/atom
  reading bonds ...
  244 bonds
  2 = max # of 1-2 neighbors
  2 = max # of 1-3 neighbors
  4 = max # of 1-4 neighbors
  6 = max # of special neighbors
  special bonds CPU = 0.000359 secs
  read_data CPU = 0.0015847 secs
special_bonds   fene
  2 = max # of 1-2 neighbors
  6 = max # of special neighbors
  special bonds CPU = 0.0001425 secs

# start beads are tethered
group           chain type 1
245 atoms in group chain

# create velocities with <v>=0
velocity        all create 1.0 1045
velocity        all zero linear


# Kremer-Grest: LJ + FENE
pair_style      soft 1.0
pair_coeff      * * 10.0 1.0
bond_style      fene
bond_coeff      * 30.0 1.5 1.0 1.0

neighbor        0.3 bin
neigh_modify    every 20 delay 0 check no


# Langevin dynamics
fix             1 chain langevin 1.0 1.0 1.0 3340
fix             2 chain nve


# ensure sum_i p_i = 0
fix             3 chain momentum 1 linear 1 1 1


#equilibration
timestep       0.01
thermo         1000
run            4000000
Neighbor list info ...
  update every 20 steps, delay 0 steps, check no
  max neighbors/atom: 2000, page size: 100000
  master list distance cutoff = 1.3
  ghost atom cutoff = 1.3
  binsize = 0.65, bins = 97 97 97
  1 neighbor lists, perpetual/occasional/extra = 1 0 0
  (1) pair soft, perpetual
      attributes: half, newton on
      pair build: half/bin/newton
      stencil: half/bin/3d/newton
      bin: standard
WARNING: Communication cutoff 1.3 is shorter than a bond length based estimate of 1.755. This may lead to errors. (src/comm.cpp:685)
Per MPI rank memory allocation (min/avg/max) = 7.558 | 7.558 | 7.558 Mbytes
Step Temp E_pair E_mol TotEng Press 
       0            1    1.1027473    20.158981    22.755606 -0.00080939681 
    1000   0.99604674  0.031283708    20.672043    22.191298 0.00051349136 
    2000   0.93506925  0.016298524    20.717582     22.13076 0.00010313449 
    3000   0.96245628  0.041936538    20.644707    22.124435 -0.00082245186 
    4000    1.0395813  0.028339967    20.720363     22.30171 -0.0017453572 
    5000   0.99531834  0.060133598    20.645317    22.192335 0.00061699446 
    6000    1.0607001  0.053277331    20.634587     22.27242 0.00040870455 
    7000    1.0004062  0.025365817    20.672308    22.192158 8.3227343e-05 
    8000   0.97966294  0.024183198    20.552585    22.040265 0.00079714178 
    9000   0.99238648  0.017617306    20.672859     22.17298 0.00015371534 
   10000   0.98896612  0.036005058    20.697925    22.211324 0.00025815792 
   11000    1.0143111  0.041120635    20.769853     22.32623 -0.00026198854 
   12000    1.0161203  0.057032065    20.644977    22.219969 0.00057694209 
   13000    1.0193947   0.10049321     20.65173    22.275074 -6.4953341e-05 
   14000    1.0316084  0.029189429     20.65444    22.224726 -0.0008993543 
   15000   0.99355821  0.033683385    20.655343    22.173281 -0.00060342435 
   16000    1.0388977  0.045546817    20.707515    22.305048 0.00032619595 
   17000    1.1495843  0.030769772    20.627867    22.375975 0.00035472372 
   18000    1.1280036  0.047320708    20.608428    22.340848 -0.00043835601 
   19000    1.0430744  0.049925048    20.726119    22.334269 -0.00015853645 
   20000    1.0246989  0.051322214    20.635425    22.217522 2.0098222e-05 
   21000    1.0535721  0.049260799    20.592164    22.215333 0.00064585879 
   22000    1.0927609  0.032824332     20.50581    22.171085 -0.00028337423 
   23000   0.98055012   0.04861142    20.676191    22.189624 0.00093283003 
   24000   0.96357015  0.025060525    20.639906    22.104422 0.00062318576 
   25000    1.0134139  0.027217315    20.695927    22.237061 0.00042140498 
   26000   0.97348496  0.044545698     20.73551    22.234323 8.5443388e-05 
   27000    1.0145972  0.048172343    20.709149    22.273005 -0.00050729825 
   28000    1.0193566  0.042061663    20.668929    22.233785 0.00061976579 
   29000   0.99810689  0.034213912     20.63529    22.160554 0.00045794493 
   30000   0.97910203  0.031396941    20.685106    22.179161 -0.00050020943 
   31000    1.0048341  0.032856276    20.710068    22.244023 1.9342291e-05 
   32000    1.0084098  0.026620692    20.653135    22.186196 -7.3378951e-05 
   33000    1.0818467  0.038596896    20.625873    22.280616 0.0013706526 
   34000    1.0642081  0.021401382    20.691613    22.302811 -0.00034209899 
   35000    1.0166435  0.018136193    20.684559    22.221436 -2.2673947e-05 
   36000   0.94047371  0.050266893    20.620819    22.076039 0.00059686155 
   37000    1.0154295  0.016482151     20.74457    22.277979 0.00077080686 
   38000   0.95208573  0.069309413    20.660475    22.152084 0.00028331195 
   39000    1.0311133  0.018572795    20.700772    22.259702 0.0001612318 
   40000    1.1000461 0.0086119623     20.61792    22.269866 0.00016525051 
   41000   0.98161222  0.062835213    20.640008    22.169251 0.00077762178 
   42000    1.0719472  0.032524236    20.778159    22.412041 -0.0013284422 
   43000    1.0052674  0.013855676    20.761166    22.276768 -0.00020288863 
   44000    1.0085567  0.062788216    20.662315    22.231764 0.00059336734 
   45000    1.0170935  0.028375962    20.780517    22.328306 6.6206685e-05 
   46000     1.012454   0.03252679     20.64272    22.187729 0.00030294056 
   47000    1.0264073  0.034679513    20.723273    22.291279 -0.00043984058 
   48000    1.0495407  0.041621467    20.613234    22.222741 -0.0002191582 
   49000    1.0409783  0.067530358    20.711144    22.333768 4.4483133e-05 
   50000   0.95964497  0.047538129    20.638712    22.119842 0.00068585942 
   51000    1.0711626  0.018193328    20.782725    22.401104 -0.00049844137 
   52000    1.0123558  0.025031987    20.660761    22.198129 -8.4517324e-05 
   53000   0.97033538  0.034648426    20.647362    22.131572 0.0010965825 
   54000    0.9530233  0.033045887    20.614166    22.070912 -2.0960779e-05 
   55000   0.97683773  0.015373141    20.709257    22.183906 0.00010020528 
   56000   0.91082293   0.02609338    20.672612    22.059363 -0.00017768814 
   57000    1.0992484  0.017862954    20.714691    22.374696 0.00047116242 
   58000    1.0179064  0.047892147     20.66604     22.23456 -0.00060350809 
   59000     1.019829  0.026377312    20.608412    22.158289 -0.00055135516 
   60000    1.0005659  0.062955421    20.735332     22.29301 -0.00052595781 
   61000    1.0401088 0.0080002407     20.67075    22.232546 0.00085679609 
   62000    1.0152771  0.056029128    20.657558    22.230287 -0.00066484096 
   63000    1.0108123  0.045830854    20.636256    22.192117 0.00078710151 
   64000   0.95251369  0.031254858    20.724847     22.17904 -0.00015222277 
   65000    1.0637949  0.025949604    20.586646    22.201775 -6.5132493e-05 
   66000    1.0355356   0.04083296    20.689254     22.27705 -0.0021448766 
   67000    1.0220884  0.044792152    20.649136    22.220803 0.00013178272 
   68000    1.0419199  0.020189285    20.626326    22.203016 -0.00020494045 
   69000   0.96392138  0.062270088     20.72564    22.227891 -0.00083167874 
   70000   0.95166725  0.035407813    20.717663    22.174745 -0.00054781504 
   71000   0.98443001  0.010311736    20.657181     22.13811 8.396015e-05 
   72000    1.0213519  0.054686397    20.736188    22.316649 -0.0012674559 
   73000   0.89500914   0.03398609    20.688172    22.059192 -0.0006464779 
   74000    0.9567605  0.036251562    20.698599    22.164134 -2.9031171e-05 
   75000   0.99719112  0.023858375    20.699506    22.213045 0.00076273393 
   76000    1.0485622  0.026184464     20.73825    22.330858 -0.00057098107 
   77000   0.94807519  0.041785076    20.639102    22.097195 -0.00040930616 
   78000    1.0943551  0.054916991    20.674114    22.363864 0.00033078373 
   79000   0.98612602  0.024039723    20.555746    22.052937 0.00038962896 
   80000   0.92923568  0.028611449    20.619606    22.036382 -0.00047240807 
   81000    1.0213886  0.036614167    20.742779    22.305222 0.00070688724 
   82000    1.0578745   0.02815288    20.722112      22.3306 -6.1448312e-05 
   83000   0.99151412  0.041376441    20.683605    22.206182 0.00012624848 
   84000    1.0004547  0.041077014    20.644808    22.180442 -0.00067734469 
   85000    1.0187525  0.027540879    20.631179    22.180611 -0.00017864226 
   86000   0.99646367  0.037659907      20.6702    22.196455 0.00054193509 
   87000    1.0148864  0.037244923     20.68669     22.24005 0.0005768566 
   88000    0.9683398  0.024525148    20.647252    22.118359 0.00050732375 
   89000    1.0023767  0.033030218     20.71629    22.246748 -0.00018508528 
   90000    1.0289246  0.054933387    20.741349     22.33337 -0.0017795556 
   91000   0.94640763  0.040600498    20.691298    22.145715 0.00074024911 
   92000   0.96666055  0.023523657    20.663733    22.131329 -0.00025819905 
   93000    1.0361246  0.018538674    20.691826    22.258208 -0.00080346736 
   94000    1.1580621  0.059111643    20.674742    22.463856 0.00032058913 
   95000     1.031734  0.059004577     20.60773    22.208019 0.0013850871 
   96000   0.96178512  0.042689093    20.684581    22.164059 -0.00048960341 
   97000   0.93742886  0.042595096    20.650987    22.093986 0.00019082849 
   98000   0.93069018  0.050804769    20.675713    22.116855 -0.00070827826 
   99000    1.0656536   0.03286478     20.64792    22.272741 -0.001095838 
  100000   0.98315156  0.071766203    20.739511    22.279986 0.00013829747 
  101000   0.93613658  0.035248575    20.711946    22.145668 0.00023364274 
  102000    1.0380934  0.049666872    20.628742    22.229193 0.00049299239 
  103000   0.97545373  0.048212067    20.652166    22.157587 6.7524698e-06 
  104000     1.022803  0.070162258    20.678008    22.276113 0.00025627052 
  105000   0.99206947  0.045516029    20.685793     22.21334 -0.00026660608 
  106000   0.91543812  0.046737601    20.573508    21.987798 0.00074645244 
  107000    1.0010796  0.038716245    20.638571    22.172777 0.0017857117 
  108000   0.96843038  0.073242469    20.651686    22.171645 0.00061421023 
  109000    1.0147161  0.035500741    20.676598     22.22796 -0.00012494631 
  110000   0.96058932  0.045031914    20.610574    22.090609 -0.00095304051 
  111000   0.91864427  0.022060894    20.624555    22.018958 0.00091544854 
  112000    1.0941013  0.038484592    20.642723    22.315661 0.0004237064 
  113000    0.9445161   0.01398189    20.742802    22.167775 -0.00014074141 
  114000    1.0568298  0.019896394    20.623239     22.22191 -0.00062010577 
  115000    1.0601511  0.019100417    20.634034     22.23687 0.0016393809 
  116000   0.95039126  0.046292275     20.73748    22.203541 -1.3225107e-05 
  117000   0.92978128  0.049870441    20.672962    22.111812 -0.00035613717 
  118000    1.0373395  0.075850625    20.678353    22.303861 -0.0012459884 
  119000   0.93548114   0.03026604    20.652624    22.080384 -0.00085513149 
  120000    0.9955468  0.042602878    20.620925    22.150753 -0.00033879655 
  121000   0.90289791  0.028098826    20.653123     22.03004 -0.00037879118 
  122000    1.1275098  0.054659207    20.647157    22.386178 0.00049461119 
  123000    1.0322477  0.043370575    20.663455    22.248877 -0.0005262444 
  124000    1.0626778  0.033624006    20.680399    22.301533 0.00079267084 
  125000     1.002039  0.021785098    20.694865    22.213573 -0.00017834394 
  126000    1.0269461  0.024059531    20.683022    22.241214 0.00030678449 
  127000   0.96904373  0.035208821       20.671    22.153842 -7.8189861e-06 
  128000   0.98956443  0.025801875    20.650163    22.154253 -1.0954248e-05 
  129000    1.0638153  0.025054463    20.627009    22.241273 0.00084397506 
  130000   0.92368061  0.010288019    20.699884    22.090037 0.00074495825 
  131000    1.0474216   0.11864064    20.648746    22.332107 0.00064509629 
  132000    1.1245647  0.049611907    20.680949    22.410523 -0.00038764851 
  133000    1.0858772  0.038806098    20.641184    22.302157 0.00026287814 
  134000    1.0400999  0.034453813    20.560098    22.148333 -0.00051886837 
  135000      1.06967  0.037205457    20.677135    22.312297 0.00041530037 
  136000   0.99171475  0.036680636    20.608678    22.126859 0.00031744317 
  137000    0.9932164  0.044191531    20.720888    22.248823 -0.00057560968 
  138000   0.97649728  0.029256282    20.677477      22.1655 -0.001403756 
  139000    1.0076148   0.03032418    20.682326    22.217903 -0.00025748582 
  140000   0.98386074  0.036202213    20.655884    22.161854 0.00059843868 
  141000   0.93223321  0.021628554    20.716675    22.130946 0.00021382372 
  142000   0.98729897   0.03691391    20.642712     22.15453 0.00031870694 
  143000   0.90811424  0.049476195    20.649324    22.055412 -0.00025060027 
  144000    1.0816153  0.060779195    20.666276    22.342856 0.00044981819 
  145000    1.0451324  0.025118446    20.623538    22.209956 -0.0006278297 
  146000     1.064352  0.020636217    20.619651    22.230299 -0.00065194491 
  147000    1.0638631   0.04634915    20.733489    22.369119 -0.0014774293 
  148000    0.9782132  0.035821162    20.697346    22.194497 -4.652551e-05 
  149000    1.0672807  0.028624507    20.655287    22.278298 0.00018618487 
  150000   0.95706135  0.010693481    20.690162    22.130588  0.000416264 
  151000   0.90808649  0.016887637     20.66238    22.035837 0.00097431327 
  152000    1.0433971  0.046596174    20.669477    22.274781 0.00020842959 
  153000    1.0320565  0.054461389    20.733879    22.330106 -6.4878872e-05 
  154000    1.0432405  0.041858096     20.62446    22.224791 -0.00029923478 
  155000    1.1066011  0.028262486    20.678708    22.360097 0.00066308343 
  156000    1.0140531  0.038247577    20.706763    22.259882 -0.00050853276 
  157000    1.0197146  0.047733742     20.71864    22.289703 0.0015890338 
  158000   0.94218561  0.044879135    20.655636    22.108025 0.00072136841 
  159000    1.0334983  0.039552344    20.698173    22.281645 -0.0013943558 
  160000    1.0497585  0.019575803    20.729955    22.317741 -3.5761309e-05 
  161000     1.026785  0.018841388    20.634732    22.187465 -0.00063992783 
  162000   0.96698262  0.082376997    20.691489     22.21842 -0.00051643975 
  163000   0.99375434  0.048966789    20.689628    22.223142 -0.0013108332 
  164000    0.8973391  0.013364462    20.721139    22.075019 -0.00052552866 
  165000    1.0837728  0.022213857    20.661615    22.302852 -0.0011160522 
  166000    1.0725027   0.01039837    20.672931    22.285517 0.00014351918 
  167000     1.085311  0.032340619    20.692901    22.346563 -0.0008135044 
  168000   0.99132155  0.030588108    20.649742    22.161244 0.00074501738 
  169000   0.99054705  0.071963412     20.62304     22.17476 0.00087434105 
  170000    1.0360743  0.043951175    20.632023    22.223742 -0.0012888272 
  171000    1.0079568  0.025441726    20.647037    22.178242 -0.00069927222 
  172000    1.0243199  0.028715668    20.675446     22.23437 -0.00024886438 
  173000    0.9351871   0.01776033    20.693733    22.108548 0.0014634933 
  174000    1.0469455   0.03639373    20.694699    22.295102 8.8307435e-06 
  175000    1.0249692  0.019604235    20.656046    22.206828 0.00035590317 
  176000   0.95698988    0.0562444     20.70443      22.1903 0.0005104981 
  177000   0.99021766  0.039294086    20.686389    22.204947 0.00068368975 
  178000   0.99904047  0.011269355    20.594259    22.097973 0.00014702151 
  179000   0.94804883  0.052865051    20.682155    22.151289 -0.00039377811 
  180000   0.94486027  0.061302665    20.679515    22.152323 -0.00018132866 
  181000   0.98908633  0.088763952    20.625066    22.191404 -9.7899497e-05 
  182000   0.99772425  0.066809204    20.720408    22.277695 0.00033272461 
  183000   0.97387368  0.021353185    20.616483    22.092685 -0.00090479812 
  184000    1.0807582  0.032156213    20.626673    22.273349 -0.00014819909 
  185000   0.95243757  0.016025635    20.676152    22.115002 -0.0010662584 
  186000    1.0023231  0.051819835    20.674466    22.223634 -9.7329071e-05 
  187000    1.1511973  0.066581927    20.716582    22.502912 0.00052516279 
  188000   0.97523085  0.061043887    20.717642    22.235561 0.00010370171 
  189000    1.0096726  0.058481018     20.73154    22.298348  0.000586188 
  190000    1.0105078  0.019735929    20.685841    22.215152 0.00034346167 
  191000    1.0574891  0.043094548    20.663143    22.285997 0.0011097019 
  192000    1.0313035  0.045363923    20.697741    22.283747 0.00054207649 
  193000    1.0301536  0.066994598    20.706823    22.312741 -0.00061474116 
  194000   0.97934845    0.0119115     20.64908    22.124019 -0.00064839862 
  195000     1.117513  0.035642133    20.774132    22.479202 0.00046794111 
  196000   0.95791959  0.020560662    20.650309    22.101885 -0.00052992446 
  197000    1.0681396  0.026209523     20.66703    22.288909 0.00074536006 
  198000   0.96747048  0.050757044    20.729822    22.225862 -0.00010604736 
  199000     1.012839  0.016666633    20.693482    22.223206 0.0009146457 
  200000    1.0597268  0.035831648    20.698985    22.317918 0.00016307094 
  201000   0.95250887  0.028558114    20.664554    22.116044 -0.0010679395 
  202000    1.0204968  0.028195904    20.645573    22.198266  0.000486033 
  203000    1.0985393  0.030867117    20.637896    22.309847 -0.00099389555 
  204000    1.0588343  0.050295796    20.615357    22.247421 9.9931442e-06 
  205000    1.0263425  0.051902418    20.647537     22.23267 0.00052913614 
  206000    1.0128291  0.038018873    20.681721    22.232783 0.00035559694 
  207000   0.98800012  0.027694889    20.738227    22.241873 0.00081539528 
  208000   0.99709541  0.045901034    20.662113    22.197552 0.00026492275 
  209000    1.0545186  0.036961719    20.708207     22.32049 0.00081184555 
  210000    1.1041785  0.037079739    20.745309    22.431896 -0.00078870744 
  211000     1.021457  0.017620129    20.612252    22.155804 0.00037912896 
  212000    1.1066067  0.028964649    20.700769    22.382869 -0.00060137195 
  213000    1.0599511  0.062054319    20.704033    22.349524 -0.00027194876 
  214000    0.9974087  0.065793084    20.644962    22.200762 0.00048597965 
  215000    1.0597013  0.027524267    20.671331    22.281919 6.0762932e-05 
  216000   0.88722207  0.044562742    20.736642    22.106606 0.0001625132 
  217000   0.93330864  0.022412976    20.735541    22.152203 0.0001563049 
  218000    1.0325902  0.010983481    20.634551    22.188097 6.9284404e-05 
  219000    1.1340391    0.0382651     20.70365    22.436031 0.00055306704 
  220000   0.93583725  0.048448546    20.598429    22.044904 0.00038233858 
  221000    1.1013476  0.025263335    20.726919    22.397461 -0.00060344589 
  222000    1.0348153  0.042471847    20.704893    22.293252 -0.00028175899 
  223000    1.0350017  0.026862059    20.701688    22.274716 0.0010048055 
  224000   0.99359808  0.041950348    20.722222    22.248486 0.00050360615 
  225000   0.95411851   0.01250667    20.536269    21.974112 -0.00038455405 
  226000    1.0721969  0.042724041    20.765737    22.410192 -0.0014300215 
  227000   0.94768779  0.010270431    20.666573    22.092572 -0.00056658055 
  228000    1.0065024  0.045649537    20.635241    22.184482 0.0013900433 
  229000    1.0082461  0.040181113    20.737017    22.283394 -0.00038300472 
  230000    1.0188083  0.024122368    20.713215    22.259312 -0.00093290448 
  231000    1.0970687  0.022254236    20.692373    22.353514 -6.8615493e-05 
  232000    1.0050772  0.017688106    20.633749    22.152899 -0.00014819403 
  233000    1.1222116  0.036624049    20.674258    22.387329 0.00092503777 
  234000   0.99306331   0.02301881    20.700912    22.207446 0.0001636629 
  235000    1.0447517  0.031164645    20.697781    22.289677 -0.00058208496 
  236000   0.95387667  0.083569929    20.697141    22.205686 -0.00083381476 
  237000   0.88449783  0.014018921    20.583948    21.919298 -0.00017195063 
  238000     1.058088  0.020861744    20.667552    22.269067 -0.00034696208 
  239000    1.0365478  0.019687219    20.730256    22.298419 -0.00024755696 
  240000    1.0456635  0.059930735    20.645115    22.267139 0.0013539346 
  241000   0.98440467   0.06150048    20.624709    22.156789 0.00070718222 
  242000    1.0573447   0.14024054    20.611577    22.331361 0.00065941985 
  243000   0.99335258  0.030151325     20.69327    22.207368 8.5712353e-05 
  244000    1.0121995   0.01002245    20.741032    22.263157 0.0003127067 
  245000   0.94286156  0.019355685    20.581602    22.009478 4.1899129e-05 
  246000    1.0136704  0.034831817     20.67722    22.226351 -8.7404539e-05 
  247000   0.96504103  0.050705098    20.677014    22.169372 0.00025071307 
  248000   0.99259537   0.01512397    20.581286    22.079226 -0.00033589474 
  249000    1.0517009  0.029890487    20.763073    22.364075 -0.00019332437 
  250000    1.0577446  0.027060761    20.707328     22.31453 -0.00069025335 
  251000    1.1105433  0.047738364    20.690486     22.39724 -0.00016924399 
  252000    0.9584524  0.020680065    20.655519     22.10801 -0.0013538952 
  253000    1.0004303  0.048462583    20.715272    22.258255 -0.0010765984 
  254000    1.1002901  0.055646911    20.645039    22.344385 -0.00044865687 
  255000    1.0195308  0.015747975    20.642577     22.18138 0.00076790456 
  256000    1.0961448  0.040496878    20.633492    22.311495 -0.001282712 
  257000    1.0864636  0.045097559    20.622686    22.290827 0.00013888646 
  258000    1.0161978  0.020692088    20.659567    22.198334 0.00025130912 
  259000    1.0621076  0.059797777    20.722274     22.36873 -0.00051796726 
  260000   0.94480097  0.032880112    20.621449    22.065746 0.00075369263 
  261000    1.1082383   0.02880477    20.693268    22.377645 0.0013033029 
  262000    1.0143614  0.038564936     20.59843    22.152326 -0.00023698314 
  263000   0.94803636  0.023496151    20.709771    22.149518 0.0007489856 
  264000     1.122756   0.12378032    20.753352    22.554392 -9.20022e-05 
  265000    1.1162199  0.011229449    20.709151    22.387876 -0.00010406714 
  266000   0.95049932  0.027167857    20.642047    22.089144 0.00049697576 
  267000   0.96906432  0.036805194    20.675855    22.160323 0.00055599924 
  268000   0.98363538  0.030957043    20.650019    22.150407 -7.5097717e-05 
  269000   0.94459601  0.016156955    20.697029    22.124297 -0.00037031916 
  270000    1.0390614  0.028780662    20.681283    22.262294 0.00019101916 
  271000    1.1401875  0.045523257    20.653028    22.401852 -0.00062020632 
  272000    1.0148116  0.064988073    20.663188     22.24418 0.0015653356 
  273000    1.0680581  0.036060446    20.727276    22.358884 0.0011147186 
  274000   0.94142955  0.032003102    20.656333    22.094717 4.7777623e-05 
  275000    1.0210291  0.031232238    20.691549    22.248074 0.00024957259 
  276000    1.0435706   0.03929724    20.648238    22.246502 -0.00093057196 
  277000    1.0785095  0.034472262    20.658248    22.303881 0.00098468964 
  278000   0.94841461  0.013388123    20.663764    22.093968 -0.00034237095 
  279000   0.98544669  0.030974197     20.64002    22.143131 0.00058292825 
  280000   0.93266223  0.016585038    20.703067    22.112935 0.00062671992 
  281000   0.98340223  0.062215392    20.716773    22.248071 0.00038785698 
  282000   0.95195675  0.035105881    20.742604    22.199817 0.00078067538 
  283000     1.002804  0.029342796    20.707785    22.235194 -0.00093055652 
  284000    1.0745635  0.014526025    20.662942    22.282734 -0.00042624274 
  285000    1.0215898  0.045079406    20.635234    22.206444 -0.00044394122 
  286000   0.92797241  0.034284102    20.647411    22.067972 0.00065688435 
  287000    1.0220584  0.019170538    20.703368    22.249369 0.00079136869 
  288000    1.0167549  0.023136691    20.752993    22.295037 -0.0012960072 
  289000    1.0532304  0.071875578    20.747153    22.392426 -0.00025520563 
  290000    1.0061005  0.020843801    20.710234    22.234069 -0.00092504064 
  291000    1.0202513  0.033944782    20.700617    22.258692 0.00017390723 
  292000    1.0123409  0.038280673    20.727776     22.27837 -6.351865e-05 
  293000    1.0420546  0.032671751    20.671299    22.260673 -0.0010993411 
  294000    0.9547379  0.039332896    20.684889    22.150483 -0.0013860842 
  295000    1.1102632  0.084644435    20.797196    22.540437 -3.8490844e-05 
  296000    1.0311588  0.054289493    20.699703    22.294417 -0.00012451637 
  297000   0.99297464   0.03109898    20.697101    22.211582 0.0016381001 
  298000    1.0344951  0.024362076    20.745581    22.315352 -0.00025247121 
  299000   0.97926329  0.027121005    20.682894    22.172914 -0.0010864402 
  300000    1.1237811  0.033886765    20.686741    22.399419 -5.185249e-05 
  301000   0.96866269  0.054702872    20.591486    22.093252 6.616191e-05 
  302000   0.95621815  0.079719323     20.70405    22.212242 -0.00049499318 
  303000    1.0749948  0.040105547    20.673714     22.31973 -0.00035477584 
  304000   0.95687568  0.021174624    20.716607    22.167236 -0.0010112598 
  305000   0.92249918   0.03347483    20.713355     22.12493 -0.0010023003 
  306000    1.0544701  0.018309531    20.702365    22.295924 0.00014632869 
  307000   0.92576512  0.029326846    20.678784    22.091091 0.00025180142 
  308000    1.1009571  0.028523155    20.675641     22.34886 -8.3262105e-05 
  309000    0.9572834  0.045829859    20.722837    22.198731 0.00089857926 
  310000   0.96533358  0.023795316    20.651963    22.117848 -0.0014067369 
  311000   0.98425325  0.037791613    20.680954    22.189099 -0.00016265325 
  312000   0.98976891   0.03603992    20.681129    22.195762 0.00018014286 
  313000    1.0116784  0.044439043    20.691694    22.247457 -0.0013045252 
  314000    0.9487056   0.03585867    20.662555    22.115663 -0.0002721707 
  315000    1.0150101  0.070299749     20.63982     22.22642 0.00018726609 
  316000    1.0764848  0.034180523    20.720257    22.362574 0.00013682685 
  317000    1.0318896  0.056628808    20.730416    22.328562 -0.00085880772 
  318000   0.99473676  0.039924825    20.632125    22.158065 -0.0013876153 
  319000    1.0587367  0.025672521    20.643278    22.250573 -0.00017267195 
  320000    1.0495578  0.049564936    20.648271    22.265747 0.00055614477 
  321000    1.0603695  0.021883298    20.655749    22.261694 0.0012784965 
  322000    1.0864369  0.033616744    20.678711    22.335331 0.00053754508 
  323000    1.0050498  0.038311038    20.640696    22.180429 -5.8797379e-06 
  324000    1.0923505  0.067745525    20.639035    22.338619 0.00070125728 
  325000   0.96383607  0.035943707    20.713238    22.189035 -7.0911603e-05 
  326000    1.0295773  0.051792869    20.645851    22.235707 0.00022222833 
  327000    1.0392331  0.030862504    20.633527    22.216876 -0.00017528611 
  328000   0.98178823  0.032674193     20.70007    22.199416 -0.0011673136 
  329000    1.0999268  0.023643783    20.653979    22.320778 0.00023360393 
  330000    1.0085676  0.029685727    20.614153    22.150516 -0.00019774846 
  331000    1.0495281  0.033519529    20.704278    22.305664 -0.00024681809 
  332000    1.0226279  0.036027961    20.618217    22.181926 -0.00048255046 
  333000    1.0279265  0.018217386    20.642767    22.196581 -0.00064485122 
  334000    1.0179117  0.048611394    20.688327    22.257573 8.8365533e-05 
  335000    1.0244949  0.017383694    20.682542    22.230396 -0.00022360376 
  336000    1.0106425  0.028320402    20.568456    22.106552 7.8413171e-05 
  337000   0.88443073  0.021935206    20.703681    22.046847 -0.0010347238 
  338000    1.0068832  0.029255568    20.691319    22.224735 -0.00054269688 
  339000   0.89678677  0.031657508    20.641634    22.012981 -0.00078713877 
  340000    1.0185878   0.02765263    20.646626    22.195924 0.00059143996 
  341000   0.97943881  0.034568442    20.757869    22.255599 0.00049052419 
  342000   0.97829711  0.042015554    20.740445    22.243916 0.00068437848 
  343000    1.0742052  0.044318912    20.707334    22.356384 0.00080971037 
  344000    1.1117652  0.046312147    20.640293    22.347446 0.00044677977 
  345000    1.0181927  0.038542419    20.742731    22.302328 0.0001808958 
  346000     1.055159  0.027212728    20.741585    22.345076 0.00016733747 
  347000    1.0960949  0.047735267    20.768969    22.454135 -0.00024790852 
  348000   0.94994671   0.04687138    20.681908    22.147883 4.6330941e-05 
  349000    1.0830383  0.041398059      20.7482    22.407525 -0.00053327136 
  350000    1.0370139   0.02346944    20.651283    22.223924 -0.00081235807 
  351000    1.0108039  0.068277241    20.688214    22.266508 -0.00022992583 
  352000   0.93048591  0.046803913    20.740164       22.177 -0.00046409439 
  353000    1.0321084   0.01765873    20.614937    22.174439 0.00030358072 
  354000   0.88687327  0.019661548     20.64949    21.994032 0.00083592717 
  355000   0.97940318  0.011282167    20.653988    22.128379 -0.00040344772 
  356000    1.0200129   0.04671859    20.644995    22.215488 0.0002111787 
  357000    1.0101213  0.034698648    20.667162    22.210858 -5.7114022e-05 
  358000   0.82988776  0.032504873    20.639793    21.912049 -0.00053480135 
  359000    1.0153476  0.066183384    20.722235    22.305224 -2.2186198e-05 
  360000     1.027363  0.034935519    20.675426    22.245116 -0.0005226578 
  361000   0.95036119  0.044702756    20.760873    22.225299 0.00027307434 
  362000    1.0711168  0.025307152    20.720782    22.346207 0.00013739048 
  363000     1.007582  0.043124258    20.707447    22.255776 -0.00037020887 
  364000   0.98261512  0.060174631    20.679478    22.207559 -0.00036959019 
  365000     1.024434  0.035349329    20.580076    22.145804 0.00066447211 
  366000   0.97948881  0.022705777    20.634455    22.120397 0.00050194139 
  367000     1.012071   0.02175854    20.610922    22.144591 0.00021669056 
  368000   0.97464492  0.027836345    20.693677    22.177513 -5.3706073e-06 
  369000    1.0396219   0.02203764    20.685721    22.260827 0.0011968265 
  370000    1.0914101  0.021865574    20.604857    22.257156 0.0013346299 
  371000   0.92413833  0.010660316    20.720226    22.111436 -0.00011026001 
  372000    1.0073823  0.042700852    20.765354     22.31296 -0.0010173914 
  373000   0.98914588  0.035349673    20.663316    22.176329 -0.00049074797 
  374000    1.0183406  0.060799221    20.730692    22.312768 0.00019379328 
  375000    1.0357811  0.026065724    20.668215    22.241611 -0.00041697811 
  376000   0.97959582  0.039069215    20.641382    22.143848 0.00014698774 
  377000   0.95237864  0.027547174    20.597009    22.047293 0.00063585673 
  378000   0.98767399   0.10107551     20.67594     22.25248 0.00014638354 
  379000    1.0350007  0.072374934    20.619377    22.237917 -0.00048868027 
  380000   0.98608312  0.037399637    20.651753     22.16224 -0.0011255641 
  381000    1.0170701  0.055174614    20.673846    22.248399 9.8550592e-05 
  382000   0.99194755   0.02393629    20.671995     22.17778 0.00060993842 
  383000     1.139384  0.076438131    20.661644    22.440183 0.0011473625 
  384000    1.0616343  0.037366958    20.629043    22.252362 -0.00025700559 
  385000   0.93027796  0.058094703    20.651521    22.099337 0.00071303864 
  386000    1.0064024  0.047492074    20.664672    22.215606 -0.00022027296 
  387000   0.92691027  0.036358193    20.775909    22.196958 -0.0001272145 
  388000    1.0710221   0.07935629    20.623402    22.302734 0.00063943322 
  389000   0.96117603  0.038801138    20.596857    22.071537 3.5523407e-05 
  390000   0.94447778  0.022214517    20.711077    22.144225 0.00077956522 
  391000   0.97681437  0.020491877    20.657116    22.136848 -2.6693145e-06 
  392000    1.0479363  0.042093084    20.649025    22.256606 -0.00089470264 
  393000   0.97032948  0.034923937    20.657828    22.142305 0.0002600573 
  394000   0.93426567   0.03227939    20.821129    22.249087 0.00057856671 
  395000   0.99528881    0.0217772     20.71268    22.221297 -0.0010683682 
  396000    1.0144243  0.045013873    20.548547    22.108987 0.00043939493 
  397000       1.1101   0.03151212    20.548119    22.237985 0.00024674888 
  398000    1.0721904  0.048788313    20.661154    22.311663 0.00064779018 
  399000    1.0198068  0.064483296    20.655543    22.243493 0.00046695654 
  400000    1.0720583  0.051295252     20.74606     22.39888 0.00011682636 
  401000    1.0289454  0.080319998    20.583082    22.200521 0.00033814021 
  402000   0.97759183  0.049502055    20.638461    22.148365 0.0013380051 
  403000    1.0229543  0.059726176    20.580556    22.168451 0.00073012911 
  404000    0.9120609   0.05597454    20.736429    22.154911 6.7272989e-05 
  405000    1.0050851  0.031141901    20.667526    22.200142 -0.00071085889 
  406000    1.0196925  0.036355668    20.632051    22.191702 -0.00049289247 
  407000   0.94261165   0.04341524    20.664144    22.115705 -0.0013968625 
  408000    1.0813927  0.034384603     20.69992    22.349773 -0.00063476119 
  409000   0.98359656  0.043014887    20.607379    22.119766 -0.00062427064 
  410000     1.158523  0.035891369    20.701584    22.468167 -0.00014801386 
  411000   0.94385877  0.014962542    20.710935    22.135907 -0.0012891816 
  412000    1.0636344  0.054246641    20.689553    22.332739 0.00024200375 
  413000    1.0921113  0.046466793    20.602373     22.28032 -0.00012441174 
  414000    0.9280368  0.028988973    20.688201    22.103563 0.00037437624 
  415000    1.0178819  0.024686669     20.73287    22.278148 -0.001285289 
  416000    1.0971068  0.016304439    20.653978    22.309226 -0.00034995656 
  417000    1.0770949 0.0099620835    20.700986    22.319996 0.0004236685 
  418000    1.0790725  0.021335848    20.643245    22.276583 0.00095467437 
  419000    1.0972437  0.023983105    20.665882    22.329013 0.0001482426 
  420000    1.0104446  0.052504208    20.631476    22.193461 -0.00029611592 
  421000   0.99058383  0.023348643     20.75407     22.25723 -0.0012599672 
  422000     1.043084  0.011493977    20.705156    22.274889 0.00038286364 
  423000    1.0825097  0.044951079    20.681523    22.343611 0.00023410563 
  424000   0.90475447  0.043144412    20.631627    22.026364 0.00035825353 
  425000   0.99113167  0.050666252    20.723845     22.25514 -0.00071490028 
  426000    1.0566263  0.023651375    20.710062    22.312184 -0.00036061945 
  427000    1.0655951  0.023047168    20.680576    22.295492 -0.00055535953 
  428000   0.97390816  0.069912229    20.743125    22.267937 0.0005668313 
  429000   0.98202188  0.020018151    20.769884    22.256922 -0.00011295008 
  430000    1.0393753  0.047675611    20.730378    22.330753 -0.0011282647 
  431000    1.0452583  0.031182659    20.623774    22.216445 -0.00033304406 
  432000    0.9888379  0.038229055    20.647617    22.163049 -0.00035443014 
  433000    1.0279623  0.029796859    20.685791    22.251238 -0.00016136176 
  434000   0.98857342  0.057793349    20.692819     22.22742 0.00025384872 
  435000     1.017595  0.020253335    20.725593    22.266008 -0.0003376257 
  436000    1.0418635  0.020727724    20.645028    22.222172 0.00046286458 
  437000    1.1074608  0.032120306     20.62315    22.309681 0.00084487013 
  438000   0.97294322  0.061683446    20.584909    22.100051 0.00074989816 
  439000   0.97848258  0.028017928     20.72096    22.210711 -0.00073638231 
  440000   0.94333245  0.033787131    20.603735    22.046745 0.00061752712 
  441000    1.1037993  0.043918662    20.677557    22.370417 -0.00014158593 
  442000   0.92909037  0.033979163     20.72624    22.148166 0.00025576341 
  443000   0.97514896  0.019863856    20.705556    22.182173 -0.0013531905 
  444000    1.0518914  0.041850994    20.614071    22.227319 -5.865752e-06 
  445000   0.97256102  0.046808167     20.76097    22.260666 -0.00093319695 
  446000    1.1003348  0.034551386    20.655424     22.33374 -0.00063027639 
  447000    1.0787566  0.019461453    20.638309    22.269301 0.00023458007 
  448000    1.0322202  0.049698614    20.721892    22.313601 -0.00021797591 
  449000     1.043126  0.055785591    20.642053    22.256141 0.00032805564 
  450000    1.0815002  0.033483029    20.723835    22.372947 -0.0010833648 
  451000   0.98076993  0.013577618    20.717822     22.19655 -7.1125456e-05 
  452000    1.0754509  0.078107403    20.738739    22.423438 -0.00078329878 
  453000   0.99018337  0.051265732    20.678548    22.209027 -0.0012525986 
  454000   0.93142278  0.041398029    20.617189    22.050019 -0.00040417076 
  455000    1.0071849  0.040276577    20.800968    22.345856 0.00048855627 
  456000    1.0527163  0.039111558    20.601414    22.213155 -0.00011223048 
  457000    1.0692105  0.038864058    20.599636    22.235769 0.00082356971 
  458000    1.0016511  0.058751425    20.696438    22.251534 0.0010516338 
  459000    0.9982437  0.052164462    20.701102    22.244521 2.5802951e-05 
  460000    1.0803371  0.046281338    20.596712    22.256885 8.8988347e-05 
  461000      1.04264  0.047666202      20.6021    22.207343 0.00010212957 
  462000    1.0702995  0.024217775    20.675759    22.298873 0.00094469868 
  463000     1.133633  0.099838755    20.642154    22.435502 0.0006331296 
  464000    1.0675695  0.040332303    20.574122    22.209272 8.8878759e-05 
  465000    1.0182058     0.130778    20.723099    22.374952 -4.9319616e-05 
  466000   0.93218793  0.035397519    20.611713    22.039685 -0.00026121774 
  467000   0.92178015  0.043613031     20.69683     22.11747 -0.0012842814 
  468000     1.067042  0.050550956    20.679526    22.324107 0.00066786036 
  469000   0.96250531  0.035268956    20.616626     22.08976 0.00077450863 
  470000    1.1237315  0.049407849    20.761289    22.489414 -8.9422174e-05 
  471000    1.0137642  0.039431838    20.703169    22.257041 -0.00078426078 
  472000   0.98477242  0.038355384    20.691204    22.200689 0.00033663566 
  473000    1.0000082  0.041726616     20.64042    22.176037 -0.0010630282 
  474000    1.0488884  0.040392755    20.703967     22.31127 0.00040850919 
  475000    0.9216195  0.054505068    20.759338     22.19063 0.00038506195 
  476000   0.95349819  0.039691569    20.682703    22.146804 0.00093579881 
  477000   0.97659641  0.023065963    20.711991    22.193973 9.5522456e-05 
  478000   0.98602694  0.037637251    20.694169     22.20481 0.00017239623 
  479000    1.0267249  0.046146819    20.708062     22.28801 -4.0476388e-05 
  480000   0.95178451  0.022322155    20.633046    22.077217 -0.00022160364 
  481000   0.95162139  0.041458125    20.711201    22.174265 -0.0010286727 
  482000   0.97457662  0.050543253    20.657428     22.16387 -0.0004368864 
  483000   0.99643615  0.038551602    20.653535     22.18064 -3.0047248e-05 
  484000   0.98141885  0.043799395    20.655192    22.165111 -0.00069846283 
  485000    1.0223468  0.029080259    20.676335    22.232676 -0.00068517638 
  486000     1.031173  0.022036508    20.742255    22.304738 -0.00029100046 
  487000     1.142403  0.047191602    20.681719    22.435521 0.0010939727 
  488000      1.12403  0.026737745    20.677061    22.382962 -0.00035536194 
  489000   0.97956983  0.022201036    20.692044    22.177602 7.4386611e-05 
  490000    1.1036707  0.042692324     20.64445    22.335891 0.00065141685 
  491000   0.95925937  0.023165252    20.632638    22.088819 0.00046989666 
  492000     0.991696  0.088127252    20.780206    22.349806 0.00018214919 
  493000    1.0051898   0.05644412    20.612473    22.170547 -0.00011615864 
  494000    1.0306267  0.032662767    20.678093    22.250386 0.0002440755 
  495000   0.93422604  0.031996918    20.738689    22.166305 0.00073497713 
  496000    1.0684407  0.052613121    20.656397     22.30513 -0.00090317916 
  497000    1.0574462  0.046931924    20.693586    22.320213 -0.0010406308 
  498000    1.0372405   0.05654897    20.712991     22.31905 0.00016939066 
  499000    1.0267549  0.014444039    20.584558    22.132848 -5.2121446e-05 
  500000    1.0340107  0.038933881    20.601876    22.185495 0.00021842497 
  501000   0.90442722  0.046307223    20.628176    22.025587 0.00062484117 
  502000    1.0399992  0.029888999    20.595763    22.179283 -0.0013171974 
  503000     1.090099  0.064764345    20.669298    22.362536 -0.0010799585 
  504000    1.1057986  0.018541945    20.721646    22.392115 0.00069532441 
  505000   0.87742111  0.018554928    20.624186      21.9535 -0.00038691561 
  506000   0.99221027  0.041803316     20.71468    22.238724 0.00049006319 
  507000    1.0747059  0.045054855    20.646472    22.297006 0.00015375702 
  508000    1.0768358  0.034955657    20.706352    22.349968 -0.00089879169 
  509000    1.0844837   0.05456202    20.602222     22.27687 9.0494013e-05 
  510000    1.0171272  0.083450484    20.621923    22.224837 0.0010040704 
  511000    1.0630088  0.040411254    20.652414     22.28083 -0.00069415939 
  512000   0.94511998  0.043039321    20.544968      21.9999 0.00084742893 
  513000    1.0670999  0.019338485    20.699716    22.313171 -0.0001281307 
  514000   0.97545698  0.029934962    20.692415    22.179564 0.00089604868 
  515000    1.0186693  0.053743686    20.712521    22.288032 0.00032942287 
  516000    1.1109605  0.046063299    20.698587     22.40429 -0.00043319742 
  517000    1.0052785  0.055251146    20.589261    22.146275 0.00093378415 
  518000   0.99509854  0.063722409    20.689559    22.239837 -0.00041370924 
  519000      1.05646  0.018157554     20.62604     22.22242 -0.0011013885 
  520000   0.99997663  0.018508638    20.628812    22.141163 -0.00092358858 
  521000    1.0123944  0.042062767    20.618507    22.172963 0.00047422339 
  522000   0.96218369  0.053563189     20.70335    22.194298 0.00079271158 
  523000    1.0902548  0.068983391    20.737684    22.435374 0.0004830543 
  524000    1.0500616  0.084822987    20.732098    22.385585 0.00048810528 
  525000    1.0796467  0.017305371    20.651593    22.281759 -0.00057489034 
  526000   0.97189334  0.034535568    20.725013    22.211438 0.00014295384 
  527000    1.0151567  0.038155081    20.682868    22.237543 -0.00059319117 
  528000    1.1023243  0.025566317    20.711848    22.384152 -0.00012800459 
  529000    1.0018185  0.027109691     20.72062    22.244324 -0.00094201484 
  530000    1.0916899  0.029878313    20.766101    22.426831 0.00076281999 
  531000   0.95528395  0.024699014    20.669184     22.12096 0.0004973359 
  532000   0.89332582  0.029926262    20.651475     22.01592 -0.00015170526 
  533000    1.0403421  0.029987775    20.648338     22.23247 -0.00038034362 
  534000    1.0169201  0.010615736    20.660597    22.190367 -0.00069229859 
  535000   0.96067018  0.030670577    20.665489    22.131283 0.00078743516 
  536000    1.0515454  0.022636979    20.721745    22.315262 -0.00040567324 
  537000     1.089589  0.026358904    20.662556    22.316627 0.00046011784 
  538000    1.0993071  0.033001444     20.61334    22.288572 0.00041549966 
  539000   0.99793395  0.043513988     20.72133    22.255636 5.3774424e-05 
  540000    1.0944563  0.053002359    20.757257    22.445243 -0.00086884074 
  541000    1.0418038  0.027824921    20.731609    22.315761 0.0004537107 
  542000    1.0446648  0.043061275    20.752426    22.356088 -0.00094839521 
  543000    1.0937062 0.0066436272    20.688551    22.329058 -0.00075780593 
  544000   0.98234088  0.027922168    20.744932    22.240351 -0.0013733957 
  545000   0.99765016  0.042807203    20.574907    22.108081 0.0012914262 
  546000    1.1129787  0.063577416    20.700579     22.42681 -9.8495371e-06 
  547000    1.0377841   0.02447636    20.727155    22.301953 0.00086754425 
  548000   0.95441351   0.03939603    20.694551    22.159724 -0.00056306634 
  549000   0.97286233  0.045580631    20.733839    22.232757 -0.00029743294 
  550000    1.0218653  0.042400663    20.684325    22.253267 0.00020732321 
  551000    1.0192785  0.026726336    20.777096    22.326499 0.00042649923 
  552000   0.98341204  0.022653702    20.620307    22.112057 0.00033466188 
  553000   0.98007558  0.061471465    20.622398    22.147983 0.00045238325 
  554000   0.97744795  0.041392399    20.660222    22.161801 -0.00075588173 
  555000    1.0446663  0.066447429    20.647561    22.274612 0.00098230681 
  556000   0.97807301  0.063942705    20.689839    22.214903 -0.0012614702 
  557000     1.085577  0.036416254     20.62264    22.280775 -0.00019833621 
  558000    1.0042653  0.036363375    20.615507    22.152119 0.0010336536 
  559000    1.0182052   0.05569926    20.625973    22.202746 -3.8025038e-05 
  560000    0.9962402  0.050132449    20.724893    22.263286 9.4113487e-05 
  561000   0.94286303  0.048770276    20.697091    22.154383 0.00094438848 
  562000   0.97228164  0.022994668    20.696852    22.172317 0.00014565979 
  563000   0.94294151   0.03798682    20.673838    22.120464 0.00023952489 
  564000   0.92917641  0.059058347    20.718071    22.165205 -0.00012743228 
  565000   0.99752036  0.055983097    20.612768    22.158924 -7.556868e-05 
  566000   0.95574219  0.027741337    20.643649    22.099152 0.00016318683 
  567000   0.99285582  0.070938166    20.583815    22.137958 0.00014577833 
  568000     1.063764  0.042254424    20.639431    22.270819 -0.00057343145 
  569000    1.0299345  0.040799131    20.660513    22.239908 6.0337772e-05 
  570000    1.0948003  0.025677462     20.68329    22.344465 -0.00031341349 
  571000    1.0202334  0.052422847      20.6787    22.255226 -0.00043529115 
  572000    1.1091409  0.074515621    20.693701    22.425137 0.00020893256 
  573000   0.99205992  0.027010322    20.671198    22.180224 -0.00065868822 
  574000    1.0464429  0.036232389    20.640977    22.240467 -0.00054793295 
  575000     1.040099  0.085608868    20.652719    22.292109 0.00058709252 
  576000   0.91850642  0.025536456    20.594554    21.992226 -0.00014950641 
  577000    1.0708823   0.03547811    20.642301    22.277547 0.00062455246 
  578000    1.0260366  0.064942233    20.665456    22.263171 -0.00029979903 
  579000    1.0258311  0.048152617    20.671067    22.251686 7.1358294e-05 
  580000    1.0093667  0.050018039     20.62135    22.179239 -0.00016477531 
  581000   0.98089531  0.027453543    20.648766    22.141557 -0.0014174901 
  582000     1.017958   0.05525502    20.695912    22.271872 -1.4382768e-05 
  583000   0.90176363  0.049655988    20.683448    22.080228 0.00015929172 
  584000    1.0158944  0.053885331    20.706742    22.278249 -0.00095035257 
  585000    1.0294614  0.063219184    20.702979    22.304087 -0.00029407118 
  586000   0.97005952  0.053391642    20.718354    22.220895 0.0013875993 
  587000   0.89324302  0.024466706    20.605235    21.964097 -0.00066436218 
  588000   0.93334415  0.054127471    20.700542    22.148971 0.00039549507 
  589000    1.1444241  0.059060135    20.589716    22.358406 0.00022578106 
  590000    0.9594386   0.02882453    20.678399    22.140508 0.00086805069 
  591000    1.0754259  0.028933846     20.64809    22.283578 -0.00051133366 
  592000    1.0737168  0.025055637     20.63807    22.267127 -0.00040663693 
  593000    1.0153424  0.052042566     20.59581     22.16465 -0.00017507725 
  594000    1.0328659   0.11711674    20.656586    22.316678 -0.00072264496 
  595000    1.0373299  0.022051275    20.664989    22.236684 0.00029178804 
  596000    1.0608898  0.012233072    20.650332    22.247405 0.00044361172 
  597000    1.1216417  0.072075125    20.611105    22.358776 0.0003624999 
  598000   0.97401454  0.043000372    20.654592    22.152651 -0.00085390966 
  599000   0.98228098  0.041543531    20.650313    22.159264 -0.00012393597 
  600000   0.95759285  0.041607318    20.587396     22.05953 -0.00072023176 
  601000    1.0803927  0.077406862    20.709738    22.401119 -0.00090875308 
  602000    1.0100817  0.043920624    20.750458    22.303316 0.00019482422 
  603000    1.0090572  0.025083973    20.722141    22.254633 -0.00060379546 
  604000   0.99711695  0.013360906    20.670536    22.173467 0.00026558128 
  605000    1.0536189  0.054583377     20.63837    22.266931 0.00044021205 
  606000   0.93379125  0.023241092     20.72087    22.139081 -0.00038615101 
  607000    1.0932649  0.040925165     20.60528    22.279409 -0.00031167998 
  608000     1.006234  0.058948119    20.686311    22.248449 -0.00079297828 
  609000   0.97577633  0.046236677    20.667013     22.17094 0.0011411714 
  610000    1.0825253  0.020561491    20.674488     22.31221 4.2440008e-05 
  611000    1.0292585  0.034718619    20.722408    22.294713 -3.2185685e-05 
  612000   0.97021322  0.032553681    20.673257    22.155191 0.00040085081 
  613000   0.97635342  0.023255969    20.703451    22.185259 0.00084727311 
  614000     1.052464  0.054344607      20.5992    22.225797 0.00091139255 
  615000     1.089625  0.054041599    20.667317    22.349125 0.00066429256 
  616000    1.1206896  0.044105348    20.614385    22.332663 -0.00027303777 
  617000    1.0876486  0.033144383    20.734989    22.392947 -6.4160093e-05 
  618000   0.95749051  0.027171063    20.659846     22.11739 0.00016539305 
  619000    1.0068251  0.019912624    20.692971    22.216957 -0.00036785203 
  620000   0.90627685  0.034371944    20.669875    22.058114 0.00060419655 
  621000   0.96858689  0.039748613    20.673173    22.159872 -0.00022675718 
  622000    1.0320302  0.040211596    20.754564    22.336502 -8.5629363e-05 
  623000   0.99055476  0.056120639    20.628511    22.164399  0.000102772 
  624000   0.92802142  0.017554686    20.672942    22.076847 0.00019129744 
  625000   0.94661308  0.036204358    20.673565    22.123894 -0.00048183613 
  626000   0.96936449  0.019236292    20.639976    22.107324 -0.00038844871 
  627000    1.0344422  0.031343193    20.647055    22.223728 -0.00045016152 
  628000   0.97483849  0.042895324    20.691837    22.191022 0.00048897834 
  629000    1.1040555  0.040502573    20.663693    22.353519 -0.00018439389 
  630000    1.0805123  0.025765892    20.636062    22.275981 0.0003433066 
  631000    1.1267094  0.018558645    20.754841    22.456565 -1.378791e-05 
  632000     1.037988  0.049556732    20.667782    22.267965 -0.00064925373 
  633000   0.98304462  0.057605169    20.701507    22.227661 -0.00096488685 
  634000   0.99676345  0.071893008    20.658417    22.219352 -0.00027497822 
  635000    1.0570243  0.025827232    20.680032    22.284924 0.00057916265 
  636000   0.90171028  0.019916696    20.798865    22.165826 0.00094283739 
  637000    1.0909842  0.034738404    20.598063    22.262598 -0.00026469689 
  638000   0.99890529  0.026425264    20.670944    22.189611 0.00021178525 
  639000    1.1031522  0.080859964    20.671618    22.400452 -0.00043969783 
  640000   0.97012711   0.04911133    20.671641    22.170004 -0.00069552059 
  641000    0.9904303  0.060849199    20.634145    22.174576 -0.00015149358 
  642000    1.0059899  0.032622826    20.559939    22.095388 -0.00039650627 
  643000    0.9745754  0.012970253    20.756534    22.225401 -0.00021040068 
  644000    1.0041398  0.023715763    20.656004    22.179781 -0.00025749656 
  645000   0.91955158  0.059101747    20.676058    22.108857 -0.0012847038 
  646000    1.1155361  0.063314566    20.702013    22.431802 -0.00032035047 
  647000   0.99833427  0.018690544     20.73805     22.24813 -0.00071032759 
  648000    1.0449453  0.034531283    20.617347    22.212899 -0.00038815507 
  649000    1.1422228 0.0052949016    20.638663    22.350299 -0.00037448697 
  650000    1.0340966   0.04759808    20.654554    22.246966 0.00033608014 
  651000    0.9735703  0.096088033     20.64741    22.197893 0.0007810673 
  652000    1.0038239  0.024125863    20.650875    22.174591 -0.0005531606 
  653000   0.94213886   0.03711519    20.704876    22.149431 -0.0012090492 
  654000   0.99096807  0.041322072    20.709448    22.231155 -0.00058152407 
  655000   0.99407498  0.050657552     20.62962    22.165304 -0.00043126188 
  656000   0.98792556  0.026451255    20.723113    22.225404 -0.00092718229 
  657000    1.0274418  0.040639572    20.655177    22.230689 0.00097263511 
  658000   0.96163506  0.034789703     20.64567    22.117024 -0.00053816225 
  659000    1.0036069  0.041174871    20.639513    22.179954 0.00029823798 
  660000    1.0767887  0.078981298    20.664079    22.351651 0.0012165082 
  661000   0.97063083  0.040863328    20.680233      22.1711 -0.0007448248 
  662000    1.0050398  0.029127598     20.61387    22.144404 -0.00013298925 
  663000   0.95672129  0.023171589    20.592105    22.044501 -5.8543544e-05 
  664000   0.97422254  0.036378692    20.682244    22.173992 0.00081331217 
  665000    1.0622066   0.03299558    20.668066    22.287868 0.00027190996 
  666000     1.034483  0.095620466    20.622818    22.263829 0.00065296951 
  667000    1.1335901  0.028134511    20.638568    22.360147 -7.3245745e-05 
  668000   0.97088956  0.039838273    20.801321     22.29155 0.00053319829 
  669000    1.0794161  0.028833194    20.783886    22.425235 0.00054067723 
  670000    1.0009798  0.040140881    20.672544    22.208026 0.0012162436 
  671000   0.91562804    0.0537782    20.642031    22.063646 -0.00046648688 
  672000    1.0214915  0.052201881     20.60532    22.183505 -0.00050239735 
  673000    1.0086655  0.019086835    20.655025    22.180935 0.00037226647 
  674000    1.0722794  0.039773679    20.645175    22.286802 -0.00042272009 
  675000    1.1188333  0.032070901     20.73146    22.434931 -0.00041189295 
  676000   0.98640323  0.025581326    20.651571    22.150718 0.00053911871 
  677000     0.982474  0.024863305    20.672915    22.165474 -0.00053473328 
  678000    1.0472151  0.035331744    20.613432    22.213174 0.0003989929 
  679000   0.97547171  0.051083946    20.726414    22.234733 -0.00056999851 
  680000   0.92998694  0.038546972    20.684561    22.112395 -0.00051019342 
  681000   0.93478182  0.042942337    20.635906    22.075298 0.00045432405 
  682000    1.0000358  0.051911607    20.654839    22.200682 0.00083923394 
  683000    1.0366535  0.032675043    20.709995    22.291303 0.0012543785 
  684000    1.0720481  0.054718839    20.664579    22.320807 -0.0005852808 
  685000   0.99678039  0.018361442    20.705429    22.212858 -0.0005595248 
  686000    1.0977526  0.017098872    20.632405    22.289412 0.00044859435 
  687000    1.0583035  0.045114284    20.680165    22.306256 0.00033273402 
  688000   0.98837008  0.038676938    20.630456    22.145636 0.00041751164 
  689000   0.93163903  0.018092484    20.665274    22.075121 0.00016975899 
  690000    1.0393691  0.039453291    20.748323    22.340466 -0.00043531133 
  691000   0.94804819  0.024650134    20.593029    22.033947 0.00031336742 
  692000   0.92923756  0.022180316    20.758725    22.169073 -0.00013993038 
  693000    1.0049816  0.018410345    20.660459    22.180188 0.00013057403 
  694000   0.94913278  0.036295214    20.701655    22.155838 -0.00092681358 
  695000    1.0056741  0.029186967    20.701995    22.233536 -0.00078238272 
  696000   0.96049531  0.015040996    20.742859    22.192763 -0.00041258765 
  697000   0.94369099  0.065898283    20.583353    22.059011 -0.00035445258 
  698000   0.91895497  0.027892003    20.638524    22.039222 -0.00040764058 
  699000     1.016096   0.02752055    20.717015    22.262459 -0.00078748919 
  700000    1.0187687  0.026998787    20.593232    22.142147 0.00059062454 
  701000     1.113474  0.023075567    20.645097    22.331566 0.00016493611 
  702000   0.91067995  0.044255121     20.56611     21.97081 0.00023881378 
  703000   0.99153501  0.020544715    20.601984    22.103761 -0.00053442408 
  704000    1.0709585  0.038499094    20.649731    22.288111 0.00077745776 
  705000   0.95949808  0.038398317    20.639894    22.111665 -0.00081882331 
  706000    1.1653711   0.04415922    20.692276    22.477357 0.0011154432 
  707000    1.0245002  0.041064631    20.653394    22.224937 -0.00060945054 
  708000    0.9379445  0.039650137    20.720745    22.161569 0.00020670388 
  709000    1.0619576  0.022615332    20.696775    22.305825 -0.00060257046 
  710000   0.99470044  0.030056834    20.623115    22.139132 -0.00010964918 
  711000    1.0175394  0.025599936    20.751236    22.296916 -0.0011099702 
  712000     1.019772  0.057802486    20.756971    22.338188 0.00036497665 
  713000   0.94856054   0.05293648    20.730926    22.200896 -0.00036783033 
  714000   0.99599769 0.0086575422    20.698468    22.195024 -0.0012591948 
  715000    0.9302301  0.013459768    20.646406    22.049516 -0.00022536688 
  716000   0.96671556  0.051762335    20.662382    22.158299 0.00061481685 
  717000    1.0406097  0.034088562     20.67149    22.260122 -0.00066545113 
  718000   0.94833999  0.052256561    20.737557    22.206517 -0.00058436424 
  719000   0.92952566  0.014917463    20.633551    22.037066 -0.00056260752 
  720000    1.0650057  0.034565223     20.68571    22.311263 0.00013236124 
  721000   0.93636512  0.027411741    20.687518    22.113744 0.00061204372 
  722000     1.056687   0.05794777    20.713731     22.35024 4.0016556e-05 
  723000     1.054664  0.052747268    20.775376    22.403662 -0.001437989 
  724000   0.90582176  0.048233649    20.614892    22.016313 -6.994776e-05 
  725000    1.0681576  0.029429089    20.684757    22.309883 -0.00020235887 
  726000    1.0259882  0.043814138    20.613521    22.190036 0.00065208454 
  727000   0.98362248  0.034758705    20.700711    22.204881 -0.00075138908 
  728000    1.0367273  0.043818019    20.730813    22.323375 -0.00091832837 
  729000    1.0008383  0.016294218      20.7135    22.224924 9.9833488e-05 
  730000    1.1073477  0.042701368    20.748935    22.445878 -0.00054790423 
  731000    1.0337031  0.052471666     20.64889    22.245588 1.1021666e-05 
  732000    1.0263089  0.042800218    20.691808    22.267788 -0.00090855603 
  733000    1.0922623  0.051578871    20.547343    22.230628 0.00034466131 
  734000   0.95364656  0.070310321    20.675106    22.170048 0.00051001351 
  735000    1.0885885  0.042206335    20.694849    22.363273 -0.00011525066 
  736000   0.99439952  0.030484922    20.751146    22.267142 8.0942441e-06 
  737000    1.0323252   0.01873846    20.602727    22.163633 0.0005656974 
  738000    1.0373952  0.049312357    20.684354    22.283408 -0.00060450246 
  739000    1.0903998  0.010206397    20.640007    22.279137 -0.00057311501 
  740000    1.0504151  0.049587394    20.683334    22.302113 -0.00048393971 
  741000   0.93844127  0.035963459    20.611926    22.049806 -0.00069491082 
  742000    1.0766993  0.037073673    20.711215    22.356746 -0.00013940573 
  743000    1.0045617  0.034347139    20.688018    22.223057 0.00099479937 
  744000   0.97358051  0.052509441    20.691374    22.198294 0.00014778814 
  745000   0.98026244  0.038670474    20.622509    22.125571 -0.00040335462 
  746000    1.0112116  0.019878116    20.649352    22.179857 -0.0010749683 
  747000    1.0678676  0.056494977    20.642276    22.294034 -0.00038728804 
  748000    1.0719445     0.037564    20.725888    22.364806 -0.00066652629 
  749000   0.99085681  0.019784884    20.671936     22.17194 0.00097973589 
  750000     1.049469  0.045561161    20.697513    22.310852 0.00081489729 
  751000    1.0792002  0.052731376    20.697603    22.362527 0.0012227815 
  752000   0.95665872  0.018006476    20.749199    22.196337 -0.00048855119 
  753000    1.0417337  0.041834269    20.686111    22.284168 -0.00042496793 
  754000   0.95149382  0.038028925    20.719021    22.178465 -0.00060488726 
  755000    1.0012918  0.020390038    20.702187    22.218384 0.0002618502 
  756000    1.0209397  0.035568859    20.708065    22.268792 -9.4945159e-05 
  757000   0.99552478  0.023832564    20.743787    22.254812 0.00066732593 
  758000   0.97829498  0.019892208    20.645979    22.127324 0.00076638153 
  759000    1.0867353  0.035474298    20.696118    22.355042 -0.00035802343 
  760000   0.98084439   0.02513854    20.770105    22.260505 -0.001077171 
  761000   0.99719072  0.024553815    20.671722    22.185957 -0.00014641034 
  762000    1.0289355  0.053165939    20.721142    22.311411 0.00041095662 
  763000   0.99887439  0.039599864     20.61755    22.149346 -0.00064316379 
  764000    1.1054492  0.030428246    20.691511    22.373345 -8.3115169e-05 
  765000   0.95011536   0.02868485    20.672228    22.120269 0.00016512291 
  766000    1.0040226  0.028391713    20.634943    22.163221 0.00037357571 
  767000     1.016174  0.049178274     20.66313    22.230348 1.5177236e-05 
  768000    1.0229973  0.016386801    20.681592    22.226212 0.00035246794 
  769000   0.97734808  0.025779468    20.729143    22.214961 0.00012093139 
  770000    1.0007775  0.039606872     20.75593    22.290576 -0.00016675905 
  771000   0.91402481  0.039139109    20.671605    22.076185 -0.00016264711 
  772000    1.0138701  0.013811562    20.646533    22.174942 -0.0010575906 
  773000    1.0344757  0.022533477    20.609496    22.177409 0.0010547587 
  774000   0.97670999  0.040089764    20.603529    22.102704 0.00032472997 
  775000    1.0221192  0.035251251    20.640594    22.202766 -0.00068575921 
  776000     1.050631  0.017590964    20.716082    22.303187 6.2476989e-05 
  777000      1.02381   0.03461444    20.621148    22.185209 -0.0011060017 
  778000    1.0502778  0.023315584     20.68013    22.272432 -0.00071719164 
  779000    1.0249429  0.046376478     20.65666    22.234175 0.00032545313 
  780000    0.9902942  0.063629791    20.683076    22.226084 0.00032127802 
  781000    1.0733739  0.028251137    20.712174    22.343914 0.00054005054 
  782000    1.0413518  0.022350728    20.671574    22.249576 -3.0774279e-05 
  783000   0.99249623  0.017980536    20.708029    22.208678 -0.0016095803 
  784000   0.98832852  0.026384618    20.752999    22.255825 0.00043524603 
  785000   0.95057073  0.017836222     20.62275    22.060622 -0.00080804116 
  786000    1.0774533   0.04067867    20.655347    22.305609 4.4812181e-05 
  787000    1.0448912  0.026004352    20.641938    22.228882 -0.00089577747 
  788000   0.91613664  0.052937958    20.723233    22.144767 -0.00034694453 
  789000    1.0417399  0.059809987     20.63376    22.249802 0.00052859551 
  790000   0.93559452  0.056941571    20.660483    22.115088 0.00086787426 
  791000   0.96823074  0.015160129    20.669344    22.130922 -0.00043730342 
  792000    1.0271693  0.020176832     20.75361    22.308252 0.00037099147 
  793000    1.0825929  0.048841904    20.679938    22.346041 -0.00058083971 
  794000    1.0733888  0.044379885    20.736016    22.383907 -0.00044900082 
  795000    1.0777243   0.02502468    20.674984    22.309996 -0.00041681367 
  796000    1.0418746  0.013367788    20.601053    22.170854 -0.00047087394 
  797000   0.97214968  0.039150945    20.671461    22.162885 0.00016584253 
  798000    1.0012549  0.046597618    20.680337    22.222687 -0.00077019626 
  799000   0.98748262  0.045898384    20.669542    22.190619 -0.0010073991 
  800000   0.97901533   0.04783565    20.652034    22.162398 -0.00054540192 
  801000     1.026261  0.050960829    20.619506    22.203575 0.00058879771 
  802000    1.0593063  0.024217054    20.672629     22.27932 4.7739759e-06 
  803000    0.9502211  0.069964542     20.64693    22.136409 0.00010877737 
  804000   0.98527663   0.02162044    20.705289    22.198792 -0.00068970189 
  805000    1.0131758  0.040138235    20.641669    22.195367 -0.00066041162 
  806000   0.94704296    0.0393057    20.743931    22.198003 0.00039606758 
  807000    1.0089151  0.015052416    20.583309    22.105557 -2.2513191e-05 
  808000    1.0228891  0.045516618    20.691453    22.265041 7.0386652e-05 
  809000    1.0103174  0.054972813    20.636828    22.201091 0.00066471848 
  810000    0.9271815  0.027922852    20.792648    22.205667 -9.3898604e-05 
  811000    1.0075785  0.024307263    20.626727    22.156233 -0.00066355405 
  812000   0.98049234  0.038718306    20.730815    22.234268 0.00035300628 
  813000    1.0252474  0.023070433    20.675966    22.230631 -0.00069593556 
  814000    1.0934588  0.026903302    20.676811    22.337208 -0.0002102629 
  815000   0.99644238  0.018688328     20.80407    22.311321 0.00067480304 
  816000     0.977191  0.025108168    20.670278     22.15519 6.1785423e-05 
  817000   0.98829563  0.039194741     20.61586    22.131448 -0.0003527277 
  818000    1.0553078   0.05343861    20.685708    22.315647 -0.00054686842 
  819000    1.0974667   0.03967174    20.631876    22.311028 -0.00032602534 
  820000    1.0289082   0.03327562    20.694589    22.264928 -0.0003616405 
  821000    1.0487167  0.075873411    20.585208    22.227735 0.00037213994 
  822000    1.0089667  0.062684345    20.619031    22.188988 0.00069132166 
  823000    1.0407103  0.013812016    20.704686    22.273192 0.00028277414 
  824000    1.0344066   0.06512525    20.653644    22.264046 -0.00018090636 
  825000    1.0771527  0.043676135    20.697906    22.350716 0.00086274417 
  826000    1.0229301  0.032048109    20.734989     22.29517 0.0010474578 
  827000    1.0621979  0.042775787    20.662989    22.292558 -0.00013136069 
  828000    1.0277967    0.0486608    20.633103    22.217166 0.00020759741 
  829000    1.0082968  0.060571812    20.660165    22.227009 0.00039796978 
  830000    1.0588802  0.034189067      20.6871    22.303126 -9.2743852e-05 
  831000    1.0027027   0.04716109    20.710883    22.255959 -0.00012198428 
  832000    1.0411674  0.042324242    20.669393    22.267093 0.0010591889 
  833000   0.98393524  0.053062435    20.683623    22.206565 -4.1818848e-05 
  834000    1.0061011  0.025286777    20.642262    22.170541 0.00088844404 
  835000   0.98807073   0.02420642     20.70497    22.205233 -0.0016093858 
  836000   0.95996217  0.054770104     20.57708    22.065916 -3.1227418e-05 
  837000    1.0747382  0.040843957    20.733984    22.380355 0.00051500901 
  838000   0.94475968  0.027288026    20.694791    22.133434 -0.0014051647 
  839000      1.05895  0.060201626    20.626448    22.268592 0.0001534139 
  840000    1.0911003  0.072278391    20.581753    22.284002 0.0017432669 
  841000   0.89841475  0.041843986    20.663155    22.047121 0.00047554492 
  842000    1.0039061  0.017194064    20.615716    22.132622 0.0001892892 
  843000    1.0358917  0.027268441    20.649782    22.224546 -0.00028893904 
  844000    1.0253535  0.051976856    20.689997    22.273727 0.00016291232 
  845000   0.98174338  0.032900488    20.602111    22.101616 0.0001831388 
  846000    1.0486348  0.031183311    20.572329    22.170044 0.00078784752 
  847000    1.0159355   0.03830155    20.657114    22.213099 0.00057494233 
  848000    1.0686741  0.042975237    20.591309    22.230752 0.0007520134 
  849000   0.96775396  0.035413566    20.585271    22.066391 0.00022365483 
  850000    0.9334987  0.021238977    20.582534    21.998306 -8.0805928e-05 
  851000   0.97268809  0.022200798    20.679071    22.154348 -0.00027932374 
  852000   0.99075091  0.029035862    20.650266    22.159362 -5.2136402e-05 
  853000    1.0446808  0.058988423    20.637175    22.256789 -0.00066452119 
  854000    1.0677438  0.039732116    20.655363    22.290173 -0.00022449502 
  855000    1.0893891  0.037971479    20.715527    22.380913 -0.0001040902 
  856000    1.0610634  0.039957084    20.576131    22.201187 0.0010694113 
  857000   0.96879088  0.046999627    20.763684    22.257938 0.00090020738 
  858000    1.0806337  0.028804739    20.752001     22.39514 -0.00067823627 
  859000    1.0073612  0.028860285     20.57299    22.106725 -0.0005571012 
  860000    1.0684226   0.03809447     20.66919    22.303377 -0.00018178671 
  861000    1.0422172  0.022785661    20.588979     22.16871 -0.00070846753 
  862000   0.97936754  0.051117537    20.658517     22.17269 0.00014272766 
  863000   0.97162331  0.055608267    20.710439    22.217533 0.00013989341 
  864000     1.048275  0.058752846    20.685671    22.310418 -0.0011830858 
  865000    1.0187178  0.017657607    20.636942    22.176439 -0.0002265161 
  866000    1.0021584   0.01971255    20.703713    22.220528 -0.00026790486 
  867000   0.95535938  0.016464555    20.719044    22.162699 0.00058955362 
  868000   0.98398419  0.027943551    20.709941    22.207837 0.00016124411 
  869000    1.0163317   0.03673639    20.590376    22.145388 8.2365647e-05 
  870000     1.037018  0.048530883    20.686584    22.284292 0.00074302011 
  871000    1.0793957    0.0512892    20.611211    22.274985 0.00044075417 
  872000   0.91908792  0.013380366    20.634725     22.02111 -0.00032495594 
  873000    1.0304279  0.016322503    20.778778    22.334433 0.00073410366 
  874000    1.0099711  0.016223665    20.638178    22.163175 -0.00042982989 
  875000    1.0107737  0.041028588    20.648735    22.199736 7.2799674e-05 
  876000     1.092217  0.019634705    20.622034    22.273307 -6.5046702e-05 
  877000    0.9933559   0.05838756    20.776569    22.318909 0.00025489903 
  878000    1.0550618  0.047620165    20.701553    22.325306 3.4915008e-05 
  879000    1.0689388  0.059433936    20.720053     22.37635 5.3298499e-05 
  880000   0.98679286  0.040974148    20.696441    22.211562 -0.00080504243 
  881000    1.0002249  0.042431531    20.647013    22.183658 5.2376661e-05 
  882000    1.0607752  0.045059378    20.740957    22.370684 -0.00092632346 
  883000    1.0121458  0.037401788    20.697466    22.246889 0.00024418805 
  884000   0.99006578  0.029063957    20.689047    22.197148 0.0012883474 
  885000   0.98074407    0.0759869    20.637245    22.178344 0.0012963722 
  886000    1.0355297  0.040851359    20.642077    22.229883 -0.00061396289 
  887000    1.0788223  0.042503137    20.656572    22.310703 -0.001163734 
  888000    1.0854778  0.034066583    20.699561    22.355199 -0.0015261494 
  889000    1.0141098  0.049034731    20.669913    22.233904 0.00097445251 
  890000    1.0053386  0.026455087    20.595999    22.124307 0.00049049276 
  891000    1.0062988  0.035381515     20.67811    22.216779  9.90841e-05 
  892000    1.0774579  0.035286284    20.663779    22.308655 0.00061017978 
  893000    1.0098225  0.046199704    20.699075    22.253825 0.00049172628 
  894000    1.0682808  0.047500269    20.791402    22.434783 -0.00011713068 
  895000    1.0300932  0.047126589    20.697708    22.283668 0.0006421288 
  896000    1.1202569  0.035100377    20.605478    22.314105 -0.00022892021 
  897000   0.98092137  0.020961699    20.581916    22.068254 -7.62865e-05 
  898000    1.0977226  0.030276991     20.59381     22.26395 0.00027133867 
  899000   0.98401943  0.019783003    20.670538    22.160326 7.2182451e-05 
  900000    1.0032553  0.018452409    20.643117     22.16031 -0.00022152372 
  901000   0.98824408  0.056384638     20.63002     22.16272 0.0001820188 
  902000    1.0004426 0.0060674184    20.789243     22.28985 -0.00026128594 
  903000    1.0068382  0.043409248    20.667262    22.214764 0.00066016392 
  904000   0.99359392  0.015981816    20.607912    22.108202 0.0007383119 
  905000   0.95402617   0.03481874    20.609983        22.07 0.00077291111 
  906000    1.0249515  0.046285405    20.732515    22.309953 5.2480646e-05 
  907000    1.0656777  0.077387314    20.771606    22.440986 0.00010962949 
  908000    1.0286639  0.021598439    20.720732    22.279029 5.4803046e-06 
  909000    1.0709294  0.025169865    20.666977    22.291984 -8.64901e-05 
  910000      1.07093  0.024861779    20.650168    22.274868 0.00057409781 
  911000   0.95317492  0.035393211    20.646566    22.105886 0.00060832651 
  912000    1.0689891  0.040939453    20.684989    22.322867 -0.00028638162 
  913000    0.9510183  0.025111137    20.646032    22.091848 0.00043316282 
  914000   0.94069284  0.041549042    20.699271      22.1461 -0.00078253498 
  915000   0.94117704  0.017507579    20.653375    22.076886 -2.7897258e-06 
  916000   0.97658957  0.020827893    20.680416    22.160149 -0.00013117056 
  917000    1.0502236  0.019574246    20.621122    22.209602 0.0011531326 
  918000   0.98856935  0.034717118    20.703601     22.21512 -0.0010466903 
  919000   0.97617469  0.058594788    20.662547    22.179428 -0.00028203829 
  920000    1.0271211  0.016974377     20.71401    22.265378 0.00077553947 
  921000    1.0605383  0.026427143    20.645147    22.255889 -0.00046148734 
  922000    1.0672855  0.013875948    20.748161    22.356431 -0.00019669624 
  923000    1.0951993  0.043252109    20.614158    22.293504 -0.00070889273 
  924000   0.98187488  0.037875581    20.580664    22.085341 -0.00018584843 
  925000   0.99707825  0.024725874    20.725278    22.239517 0.00080027121 
  926000    1.0594823   0.07314213    20.683562    22.339441 0.00085832173 
  927000   0.98490295  0.052065098    20.622432    22.145821 0.00040263459 
  928000    1.0472521  0.032740228    20.622822    22.220029 0.00028905684 
  929000    1.0044754  0.059546783    20.709793    22.269903 0.00011677221 
  930000   0.92082654  0.027511763    20.724882    22.127996 -0.001130066 
  931000    0.9964844  0.037867955    20.607998    22.134492 -9.3741435e-05 
  932000   0.99238588  0.026163328    20.645368    22.154035 0.00077021992 
  933000    1.0426201  0.014757141    20.627301    22.199605 -7.1978093e-05 
  934000    1.0053467  0.083303636    20.563788    22.148956 -0.00064520067 
  935000     1.058073  0.035000341    20.659536    22.275168 -0.0012336121 
  936000   0.95970601  0.006071103    20.653399    22.093153 0.0008996629 
  937000   0.88396553  0.064222148     20.86254    22.247299 -0.0014659599 
  938000   0.99593416  0.025475154    20.790305    22.303583 -0.00069306091 
  939000   0.98688427  0.048220115    20.636115     22.15862 7.8579507e-05 
  940000    1.0978376  0.020346652    20.705784    22.366165 0.00072696015 
  941000   0.96747157  0.012963881     20.71185    22.170098 -0.00088426692 
  942000   0.96409602  0.021618254    20.658174    22.120033 -0.00038023521 
  943000   0.96213437  0.023266559    20.667348    22.127926 -0.00049527167 
  944000    1.0192857  0.039019965    20.676934    22.238642 -0.00041483585 
  945000   0.99638809  0.034401362    20.616282    22.139165 -0.00027818055 
  946000    1.0486193  0.041345653    20.732279    22.340134 0.0017590121 
  947000    1.0069204  0.039701671    20.671127    22.215045 -0.00066278163 
  948000   0.97965742  0.024056603    20.652011    22.139556 -0.00047378865 
  949000    1.0462801  0.034778868    20.691544    22.289337 0.00040923294 
  950000   0.98989879  0.031318003    20.723893    22.233999 7.9935424e-05 
  951000   0.97783875  0.020250057     20.63797    22.118992 -0.00040439174 
  952000    1.0093246  0.022747269    20.655792    22.186347 5.2660126e-05 
  953000   0.98915128  0.011147793    20.686717    22.175536 -0.00083198309 
  954000   0.99192146  0.026689602     20.75554    22.264039 0.0002083257 
  955000    1.0448138  0.036100455    20.654122    22.251046 -0.00053390762 
  956000    1.1045627  0.046056014    20.698663    22.394801 0.0006015451 
  957000   0.95661446  0.026186674    20.647496    22.102748 -0.0011620593 
  958000    1.0434277  0.049872837    20.622366    22.230993 0.00064694925 
  959000    1.0787693  0.022408975    20.670638    22.304597 -0.00052431359 
  960000   0.98724935    0.0267666     20.68529    22.186887 0.00098847497 
  961000    1.1398067  0.049668797    20.655979    22.408379 0.00089309653 
  962000    1.0102091  0.028596997    20.628213    22.165939 -5.2438377e-05 
  963000    1.1486782  0.040504911    20.585297    22.341786 0.00096521936 
  964000   0.98060601  0.027305363    20.720975    22.213185 -0.00054503914 
  965000   0.98023614  0.038874423    20.667006    22.170233 0.00087234366 
  966000    1.0189302  0.045275576    20.672268    22.239701 0.00017121168 
  967000    1.0019001  0.019316363    20.760308     22.27634 0.0001556122 
  968000   0.94826689  0.048495833     20.65705    22.122141 -0.00059856208 
  969000    1.0753538  0.042435267    20.669361    22.318243 0.00053987686 
  970000   0.99750289  0.032138003    20.728736    22.251022 -0.0010643421 
  971000   0.94132282  0.041789378    20.648974    22.096984 -3.0468074e-07 
  972000     1.008311  0.030278756    20.732936    22.269508 -0.00013617979 
  973000    1.0153731  0.034407103     20.69746    22.248711 -6.935951e-05 
  974000   0.98317324  0.022896584    20.700744    22.192381 -0.00040165762 
  975000    1.0442347  0.020331599    20.640993    22.221283 -0.00038316833 
  976000    1.0353638  0.023993838    20.640643    22.211344 0.00014511976 
  977000   0.95492506  0.031776394    20.737018    22.195335 -0.001184686 
  978000    1.0911519  0.062824757    20.725198    22.418071 -0.00034187014 
  979000    1.0441112  0.051934251    20.657688    22.269397 0.00054180688 
  980000   0.96373162  0.039789413    20.727193    22.206679 0.00079728916 
  981000   0.98211538  0.064439478    20.656738    22.188337 0.00016710524 
  982000    1.0055119  0.013399178    20.682649     22.19816 -0.00061798099 
  983000    1.0106892   0.03888797    20.763124    22.311858 -0.00024043994 
  984000    1.1151863  0.025603787    20.582133    22.273689 0.00082277332 
  985000    1.1157317  0.078211958     20.72537    22.470348 -0.00047177335 
  986000    1.0061619   0.06651894    20.667989    22.237591 0.00088425545 
  987000    1.0012396   0.03401205    20.669175    22.198917 -0.0002321288 
  988000   0.99786453  0.027967291    20.660366    22.179021 0.0011907532 
  989000    1.0018213  0.031169813    20.645063    22.172831 -0.00013679225 
  990000   0.92301172  0.055375552    20.656033    22.090275 2.6872854e-05 
  991000   0.99832892  0.068572685    20.636661    22.196614 0.00026192412 
  992000    1.0248731  0.054026239    20.724802    22.309863 -0.00060325313 
  993000   0.94589227  0.057977652    20.704747    22.175772 0.00044652165 
  994000   0.98742608  0.058730341     20.68148    22.215304 -0.00024179615 
  995000   0.99747892  0.046509906    20.645822    22.182443 -0.00056808743 
  996000   0.99400383  0.048178615    20.617458    22.150557 0.00010744264 
  997000    1.0720732  0.043623861    20.649221    22.294391 -0.00024500556 
  998000   0.97613445  0.045166489    20.619796    22.123188 -2.3158217e-05 
  999000    1.1712211  0.033322036    20.642885    22.425868 -0.00071612783 
 1000000    1.0759697  0.082521095     20.61623    22.306118 0.00092228395 
 1001000    1.0066286  0.047912944    20.609059    22.160752 0.00018590419 
 1002000     1.070206  0.051739864    20.679435    22.329931 0.0015323117 
 1003000   0.98098528  0.026005434    20.653647    22.145124 0.00047989301 
 1004000    1.0552769  0.032756986    20.619029     22.22824 -0.00030021598 
 1005000    0.9636975  0.028627163    20.595483    22.063756 0.00062159799 
 1006000     1.046989  0.046347125    20.621201    22.231621 0.00071625127 
 1007000    1.0114375  0.067221578    20.659829    22.238014 2.1800558e-05 
 1008000    1.1242057  0.040179946    20.705713    22.425318 0.0009906448 
 1009000    1.0135002  0.049619069    20.699392    22.263056 -0.00083545143 
 1010000    1.0625371  0.017056119    20.673091    22.277448 -0.00050012855 
 1011000    1.0654016  0.044010767    20.689991    22.325581 0.00086317582 
 1012000    1.0336777  0.031091374    20.685082    22.260361 1.6966472e-05 
 1013000   0.96801389  0.056152699     20.68463    22.186876 -0.00061139823 
 1014000    1.0121665  0.049625437    20.759551    22.321229 0.00029594353 
 1015000   0.98704642   0.06295398    20.700482    22.237963 0.00024254224 
 1016000    1.0542068  0.046358481    20.763646    22.384861 0.00017753876 
[...]
 2821000    1.0316562  0.016458982    20.715648    22.273275 0.0010785418 
 2822000     1.036885  0.023270951    20.732434    22.304685 0.00021968849 
 2823000    1.1138809  0.022296762    20.652958    22.339257 -0.00066290551 
 2824000      1.02942  0.040068567    20.611047    22.188943 -0.00071893689 
 2825000    1.0137791  0.023497653    20.725478    22.263438 -0.0013526442 
 2826000   0.96304296  0.044932012    20.629734    22.113334 0.00036009734 
 2827000    1.1546716  0.028646237    20.704128    22.457712 -0.00042344334 
 2828000    1.0380655  0.033073452    20.712745    22.296562 -0.0011015547 
 2829000   0.96840593   0.04525273    20.647762    22.139695 0.00081110645 
 2830000   0.99981419  0.024861067    20.725878    22.244339 -0.0011003128 
 2831000     1.007922  0.087872879    20.584956    22.178541 -0.00078254103 
 2832000   0.94794416  0.071294954    20.654227    22.141634 0.0001210795 
 2833000   0.91911326  0.014527363    20.703038    22.090608 -4.4954773e-05 
 2834000    1.0174633  0.034872735     20.64383    22.198669 0.00015103131 
 2835000     1.012715  0.035741237    20.746871    22.295485 0.00012263102 
 2836000    1.0435852  0.023628081    20.700194    22.282811 0.00040699054 
 2837000    1.1045047  0.035531476    20.738532    22.424058 -0.00048492838 
 2838000    1.0020105  0.033333178    20.678117    22.208331 -0.00020892846 
 2839000    1.0065488   0.03527573    20.667655    22.206591 -5.6558547e-05 
 2840000    1.0603658  0.053470817    20.775212     22.41274 0.00025343954 
 2841000   0.91201475  0.032201317    20.730301    22.124941 -0.00044927036 
 2842000   0.98022233  0.044917546    20.651997    22.161246 0.00028366746 
 2843000   0.97803057  0.020709347    20.751206    22.232974 -0.0012109862 
 2844000    1.1002734  0.040550795    20.706614    22.390839 0.00028940786 
 2845000    1.0446955  0.023461616    20.727525    22.311634 -0.00042038289 
 2846000    1.1202445  0.051504761    20.585752    22.310765 0.00040386261 
 2847000   0.98756385  0.014979848    20.664323    22.154603 0.00027526836 
 2848000    1.0719746  0.036374281     20.65504    22.292813 -0.0013326535 
 2849000   0.88601317  0.040392624    20.709141    22.073129 0.00021183243 
 2850000   0.97367982  0.036320999    20.690455    22.181335 0.00027246283 
 2851000   0.99335188  0.026439202    20.758782    22.269167 -0.00037607235 
 2852000   0.97181798  0.020627876    20.695246    22.167651 -5.9135557e-05 
 2853000    1.1028196  0.057969957    20.664041    22.369489 0.00067992823 
 2854000   0.97956508  0.029868929    20.636592    22.129811 0.00041236402 
 2855000   0.95367922  0.045840369    20.589437    22.059957 -0.0005636198 
 2856000    1.0104199  0.017402983    20.741455    22.268302 -0.0006634436 
 2857000     1.022201  0.018917595    20.689466    22.235427 -0.00082448146 
 2858000   0.99304769  0.016712792    20.573839    22.074043 0.0004493354 
 2859000     1.030925  0.037629475    20.653287    22.230992 -0.00073744668 
 2860000    1.0517053  0.024935326    20.619334    22.215388 -0.00065303241 
 2861000    0.9656981  0.040518733    20.697467     22.18062 -0.00010693561 
 2862000    0.9877619  0.039035647    20.753354    22.267985 0.00079520963 
 2863000    0.9813197  0.010002463     20.67724    22.153214 -0.00087737258 
 2864000   0.99900261  0.034280154    20.613449    22.140117 -7.6484897e-05 
 2865000     1.028062  0.029396146     20.72643    22.291625 -0.00022858684 
 2866000    1.0804508  0.034419283    20.628467    22.276947 -2.3092014e-05 
 2867000    1.0046159  0.072250384    20.706411    22.279435 0.00071526384 
 2868000    1.0369828  0.031340625    20.686974     22.26744 -0.00055571696 
 2869000    1.0104112  0.034517106    20.716865    22.260813 -0.00083625243 
 2870000   0.91598576  0.030300833     20.75619    22.154862 -0.00078305862 
 2871000    1.0413018  0.045988819    20.741962    22.343528 -0.00027019881 
 2872000    1.0892336  0.030267392    20.624213    22.281662 -5.8869487e-05 
 2873000   0.86826453  0.038065165    20.622655    21.957801 0.00060543888 
 2874000   0.98208986   0.01847123    20.665829    22.151423 -0.00018152387 
 2875000    1.0126959  0.028697361    20.626986    22.168527 -0.00065549362 
 2876000      1.02656  0.050115504    20.667025    22.250695 0.00061170799 
 2877000    1.0110844  0.068793279    20.661416    22.240646 0.00048619409 
 2878000   0.92281332  0.016975544    20.711797    22.107343 0.00057947731 
 2879000    1.0024195  0.029554757    20.669329    22.196376 0.00035752263 
 2880000   0.97831687  0.026726267    20.666645    22.154857 -0.00038571788 
 2881000    1.0561687  0.018145444    20.656303    22.252235 -0.00020804945 
 2882000    1.0214252  0.062467492    20.661245    22.249596 -3.8228035e-05 
 2883000   0.97666693  0.041239017    20.673184    22.173444 -0.00038648789 
 2884000   0.98987759   0.06245427    20.676944    22.218154 -0.0010967533 
 2885000    1.0270401   0.01639821    20.626329       22.177 0.00013424306 
 2886000      1.06279  0.036354674    20.749147     22.37318 -0.00032981379 
 2887000    1.0342829  0.042888789     20.63783    22.225811 -0.00012695943 
 2888000    1.1564196  0.027464262    20.731453    22.486466 -0.0012036922 
 2889000   0.97234488  0.024101555    20.685088    22.161754 0.00018339096 
 2890000    1.0309139  0.035700393    20.724755    22.300515 -0.00070738255 
 2891000   0.90844233  0.061640616    20.619442    22.038184 -0.00056501952 
 2892000    0.9811202   0.03143785    20.563744    22.060855 -4.6422431e-05 
 2893000    1.0335598  0.015605492    20.649474    22.209091 -0.00098341873 
 2894000    1.0226382  0.043144672     20.65173    22.222571 5.4685905e-06 
 2895000   0.92509366  0.023691533    20.690216    22.095884 -0.00078285337 
 2896000   0.95884813  0.062372901     20.62881    22.123585 -0.00092160234 
 2897000   0.97791128  0.030197702    20.726376    22.217454 -0.00095246541 
 2898000   0.96322464 0.0086508957    20.633706    22.081297 -0.00026235566 
 2899000    0.9503577  0.038229876    20.736293    22.194241 -0.00032808086 
 2900000    1.0871257  0.030174991    20.655189    22.309397 -0.00023426361 
 2901000   0.98407438  0.040319625    20.700904     22.21131 0.00062011219 
 2902000   0.87291626  0.022402036    20.621113    21.947545 0.00016886774 
 2903000    1.0073703  0.018819691    20.700736    22.224444 -0.00024239022 
 2904000   0.99052934  0.028774195    20.660746     22.16925 -0.0011671632 
 2905000   0.96929534  0.066440959    20.614474    22.128924 -0.0007157337 
 2906000   0.94454717  0.030313896    20.702134    22.143486 0.00015793439 
 2907000   0.96572361  0.036663069    20.697799    22.177135 0.00069281688 
 2908000   0.96481315  0.036316039    20.667695    22.145324 -0.00095681154 
 2909000   0.92874382  0.047602814    20.703268      22.1383 0.00064271029 
 2910000    1.0608146    0.0131649    20.640628     22.23852 -0.00029786045 
 2911000   0.94784922  0.028808497    20.715651     22.16043 -0.0010319078 
 2912000    1.0542629  0.018559837    20.735602    22.329101 0.00074645082 
 2913000   0.98708338  0.044264869    20.701794     22.22064 0.00046569437 
 2914000    1.0745003   0.02247369    20.655879    22.283525 0.00044836023 
 2915000    1.0504173  0.018504497     20.74288    22.330579 0.00045430039 
 2916000    0.9502495  0.023792257    20.618105    22.061453 -0.00019125136 
 2917000    1.0777792  0.031553649    20.659182    22.300806 0.0011202266 
 2918000    1.0507102  0.065610155    20.597141    22.232383 -9.8378641e-05 
 2919000   0.96163354  0.032689879     20.66434    22.133593 1.2974707e-05 
 2920000    1.0038491  0.039437625    20.700905     22.23997 -0.00056504473 
 2921000   0.99094859  0.057007476    20.610758    22.148121 0.0011219245 
 2922000    1.0158295  0.024151204    20.700806    22.242482 -0.00051661262 
 2923000    1.0510433  0.027550176    20.645539    22.243219 0.00059736954 
 2924000    1.0399381  0.032796124    20.720609    22.306946 -1.6550928e-05 
 2925000   0.98927006  0.021509333    20.600998    22.100355 0.00025557541 
 2926000   0.90664113  0.031240384    20.605404    21.991055 -0.00055925957 
 2927000    1.0696826  0.028587418    20.633459    22.260022 0.0004661896 
 2928000    1.0079066  0.036641837    20.701977    22.244308 -0.00094020162 
 2929000     1.033707  0.034460593    20.627172    22.205864 0.00070278244 
 2930000    1.0015884  0.034541923    20.717008      22.2478 -0.0006497544 
 2931000    1.1424225  0.019556636    20.685205    22.411401 -3.8862518e-05 
 2932000     1.023522  0.033977877    20.639612    22.202607 0.00071079152 
 2933000    1.0250597  0.063761262    20.597421    22.192496 -0.00029136568 
 2934000    1.0942463  0.044885819     20.59617    22.275726 0.00026505134 
 2935000    1.0153599  0.040276734    20.636126    22.193226 0.00023051995 
 2936000    1.0280931  0.060706789    20.602249    22.198801 0.00038402788 
 2937000   0.92156937  0.026594615    20.657291    22.060597 -0.0009922045 
 2938000     1.010555  0.028973765    20.691973    22.230592 -0.0005081162 
 2939000   0.96964733  0.063631011    20.709054     22.22122 0.00076970012 
 2940000   0.95302561  0.035810792    20.651186    22.110701 0.00043754308 
 2941000    1.0130474  0.021687828     20.60121    22.136267 -0.00046990735 
 2942000   0.98902571  0.031631443    20.727738    22.236852 0.00064427193 
 2943000   0.93478221  0.022316339    20.760906    22.179673 0.00026340804 
 2944000   0.99898826  0.037482374    20.647809    22.177657 -0.0008972056 
 2945000    1.0430102  0.046477051    20.622814    22.227421 0.00038061356 
 2946000    1.0551836  0.020478551    20.671552    22.268346 -0.00016839451 
 2947000    1.0691655  0.020996656    20.675846    22.294045 -0.00093734596 
 2948000   0.97823178  0.021321658    20.758842    22.241522 0.00042452717 
 2949000   0.99852207  0.036130938    20.633911    22.161712 0.00086352742 
 2950000    1.0788764  0.017060597    20.556776    22.185546  0.001136643 
 2951000   0.97340556  0.011003474    20.657567    22.122719 -0.00017890101 
 2952000    1.1490668  0.020470869    20.596834     22.33387 -0.00010561689 
 2953000   0.98945402   0.08318578    20.675703    22.237012 -0.000889765 
 2954000   0.91207544  0.034529404    20.691992    22.089051 -0.00059712755 
 2955000   0.94094967  0.040094649    20.584924    22.030682 0.00014525707 
 2956000   0.93054556  0.044840558    20.709356    22.144318 -0.0007615124 
 2957000   0.97310257  0.029109324    20.627633    22.110439 -0.00095177805 
 2958000   0.93358087  0.042372442    20.658872      22.0959 -0.00065424921 
 2959000   0.95302194  0.027131553    20.614035    22.064864 0.00023439257 
 2960000   0.98382687  0.039809346    20.679967    22.189493 -0.0011053528 
 2961000    1.0985956  0.017970503    20.659694    22.318832 -0.0015522607 
 2962000   0.99663426  0.037071062    20.673852    22.199773 0.00044367238 
 2963000    1.0474846  0.023615339    20.736742    22.325171 -0.0012459864 
 2964000    1.0531444  0.039157705    20.695618    22.308044 -3.6400424e-06 
 2965000    1.0398935   0.04747802    20.605515    22.206466 6.6434421e-05 
 2966000    1.0042847  0.048105119    20.726293    22.274676 0.0011545555 
 2967000    1.0678291  0.041160931    20.678198    22.314565 0.00042753841 
 2968000    1.0038437  0.033303752    20.619127     22.15205 0.00042141369 
 2969000    1.0453455  0.065387188    20.670507    22.297512 0.0002326011 
 2970000   0.97948282   0.05155964    20.606022    22.120809 0.00018739616 
 2971000   0.98817926  0.036405912    20.761715     22.27434 -0.00079345063 
 2972000    1.0495019  0.020057417    20.598882    22.186767 -8.5057602e-05 
 2973000    1.0690679  0.023535073    20.657396    22.277988 -2.9371987e-05 
 2974000    1.0843181  0.049943037    20.779805    22.449587 -0.00033621863 
 2975000    1.1129941  0.027700206    20.613061    22.303439 0.00069940668 
 2976000   0.97604198  0.038547893    20.684796    22.181431 -0.00056911939 
 2977000    1.0755493  0.019719001    20.711185    22.337643 -0.00065310805 
 2978000   0.94477091  0.014767704    20.723662    22.149802 0.0016592461 
 2979000    1.1386563  0.030996921    20.730602    22.462612 -0.00068628421 
 2980000    1.0329103  0.046577703    20.703761     22.29338 0.00085800045 
 2981000    1.1365965    0.0400079    20.643244    22.381188 0.00098342722 
 2982000    1.0533942  0.053790677    20.654786    22.282218 -0.00010689718 
 2983000   0.98296195  0.031270771    20.717387    22.217083 8.2296674e-06 
 2984000    1.0610719  0.037166639    20.656908    22.279186 0.00054718217 
 2985000    1.0074361  0.044811576    20.682136    22.231934 0.00038347086 
 2986000    1.0975669  0.033396321     20.68137    22.354397 -0.00018896496 
 2987000    1.0088436  0.045383441    20.769212    22.321684 0.00031845959 
 2988000   0.96044513  0.040619947    20.665374    22.140781 -0.00064247926 
 2989000    1.0262247  0.037480347    20.724071    22.294606 -0.0013636627 
 2990000    1.0117033  0.032859492    20.707699    22.251919 -0.00015523651 
 2991000   0.97538851  0.039898026    20.694005    22.191014 -0.0010712927 
 2992000    1.0246206  0.040212096    20.702175    22.273045 -0.00084743624 
 2993000    1.0096652  0.038298674    20.691895     22.23851 -0.00079512267 
 2994000    0.9825996  0.035814411    20.650539    22.154237 0.0013114755 
 2995000    1.0721412  0.058496864    20.660378    22.320522 -0.00029784181 
 2996000   0.96995069  0.021297658    20.701123    22.171408 0.0012777342 
 2997000    1.0973065   0.03711881    20.719241    22.395601 -0.0008924056 
 2998000    1.0171622  0.046744172    20.642471    22.208731 0.00081289337 
 2999000     1.078685  0.022678794     20.64803    22.282132 0.00069032573 
 3000000    1.0044415 0.0075676615    20.649405    22.157485 -0.00028790883 
 3001000    1.1095034  0.067262997    20.751325     22.47605 -0.00035032586 
 3002000    1.0285973  0.018928458    20.668793     22.22432 -0.0016218666 
 3003000   0.95628567  0.030105038    20.691597    22.150275 0.00046794119 
 3004000     1.092484  0.053201839    20.612151     22.29739 0.00088398154 
 3005000   0.96241832  0.053971871    20.711326    22.203033 0.0020094949 
 3006000   0.94541873  0.036805501     20.61849    22.067636 -0.0006416552 
 3007000   0.96428755  0.014406898    20.629466    22.084401 -3.09033e-05 
 3008000   0.99637771  0.026708594    20.708426    22.223601 -0.00035233643 
 3009000   0.99875222  0.038243172    20.665867    22.196123 -0.00058018663 
 3010000    1.0505607  0.023365897    20.651205     22.24398 -0.0001615638 
 3011000    1.0354796  0.026164621    20.678844    22.251889 -0.0014059992 
 3012000     1.010969  0.033558824    20.663948    22.207771 -0.00062969541 
 3013000   0.95782397  0.030029132    20.602941    22.063842 0.00070929558 
 3014000    1.0136896  0.043387631    20.689219    22.246934 -0.00019068706 
 3015000    1.0105315  0.032271557    20.662606    22.204488 0.00095490964 
 3016000    1.0276821  0.038091128    20.670745    22.244067 0.00075191299 
 3017000    1.0889957  0.039734243    20.638983    22.305544 0.00051053935 
 3018000   0.93966958  0.066475257    20.654244    22.124471 -0.00048745245 
 3019000    1.1148597  0.038785422    20.650616    22.354866 -0.00059165191 
 3020000    1.0272104  0.042713747    20.672229     22.24947 0.00075095929 
 3021000     1.051308  0.063931426    20.722259    22.356716 0.00076364092 
 3022000    1.0338658  0.045466016    20.685358    22.275293 -0.00020641295 
 3023000   0.93110836  0.022300876    20.693587    22.106849 0.00089209231 
 3024000    1.0297056  0.052504995    20.592543    22.183302 0.00022079065 
 3025000    1.0040732  0.018551579    20.702348    22.220862 0.00020503186 
 3026000    0.9828619  0.053242147    20.588073    22.109591 -0.00025556916 
 3027000   0.87869154  0.029349335    20.726348    22.068355 -0.0008574983 
 3028000   0.95166672   0.03007045    20.700815    22.152559 -0.00093814929 
 3029000    1.0368319   0.04152819    20.683942     22.27437 -7.6918592e-05 
 3030000    1.0782111   0.03399112    20.630688    22.275395 0.00042809864 
 3031000   0.98514504  0.028091084     20.69754    22.197317 0.00021340443 
 3032000   0.99384374  0.021831837     20.69415    22.200662 -0.00043520177 
 3033000    1.0095893  0.020113173    20.680029    22.208345 -0.00034940459 
 3034000   0.93848144  0.024056154     20.69851    22.124542 -0.0010631087 
 3035000   0.90453874  0.038642395    20.763807    22.153719 -0.00010006072 
 3036000   0.94781708  0.032974701    20.669089    22.117987 -0.00047898169 
 3037000    1.0086725  0.028175442    20.658085    22.193094 -0.00035310146 
 3038000   0.96022754  0.040324986    20.706083     22.18087 -0.00013864678 
 3039000    1.0309313  0.042345753    20.686593    22.269024 -6.6823763e-05 
 3040000    0.9525951  0.032566614    20.635283     22.09091 -2.646907e-05 
 3041000    1.1168703  0.021370035    20.649381    22.339219 0.00014337277 
 3042000     1.001844  0.043354522    20.657883    22.197869 -0.00033181618 
 3043000    1.0246246  0.043186393    20.747544    22.321394 -0.00093079917 
 3044000     1.036698  0.027245051    20.672258    22.248203 -0.00036179384 
 3045000   0.89672866  0.034368952    20.685921    22.059893 -0.0003807432 
 3046000     1.078038  0.011499159    20.679489    22.301445 -2.5692343e-05 
 3047000   0.96699765  0.037382161    20.690065    22.172024 7.1431049e-06 
 3048000     1.159884   0.03330434    20.632708    22.398737 -0.0011659906 
 3049000    1.1151118  0.018748629    20.734702    22.419291 0.00027231139 
 3050000    1.0611756  0.090020286    20.718707    22.393994 -0.00016118616 
 3051000   0.97943909  0.045502198    20.729479    22.238143 -0.00075687986 
 3052000     1.048517  0.026514595    20.647415    22.240286 -0.00055580562 
 3053000    1.0325893  0.031136569    20.630458    22.204157 0.0013631677 
 3054000    1.0433126  0.041790967    20.644879    22.245251 0.00013932862 
 3055000    1.0914708  0.030348181    20.641121    22.301993 -0.0010107873 
 3056000    1.1164228  0.045078558    20.669692    22.382569 0.00011597596 
 3057000   0.90187824  0.028507228    20.716527     22.09233 -2.6010756e-05 
 3058000    1.0073965  0.060512717    20.693895    22.259335 -0.00069853201 
 3059000    1.0021091  0.042673321    20.654437    22.194139 -0.00030029601 
 3060000    1.0230816  0.023270185     20.60998    22.161609 -6.3032868e-05 
 3061000    1.0871457  0.030408458    20.600078    22.254549 -0.00062599667 
 3062000   0.93806356  0.015491741    20.709215    22.126059 0.00015975648 
 3063000    1.0447098  0.019872442    20.704249     22.28479 -0.00091623728 
 3064000   0.94287254  0.020444786    20.656114    22.085095 -0.00010719418 
 3065000    1.0637605  0.028731772    20.656017    22.273877 0.0012474944 
 3066000    1.0046128  0.020555088    20.647867     22.16919 -0.00062329195 
 3067000    1.0811264 0.0094188904    20.719676    22.344165 -0.00064405239 
 3068000    1.0554248  0.029892607    20.716881    22.323449 -0.00032133002 
 3069000   0.98917442  0.073073034    20.665293    22.216071 -0.00062283038 
 3070000    1.1030601  0.037900503    20.692768    22.378505 0.00020224543 
 3071000   0.93652634  0.048775171    20.744691    22.192522 -0.0002311127 
 3072000   0.99536381   0.03617544    20.636491    22.159618 0.00080921357 
 3073000    1.0272765  0.055510871    20.715722    22.305858 0.00034398159 
 3074000   0.97073943  0.039192064    20.696822     22.18618 -0.00055896078 
 3075000    1.0205888  0.020635556    20.613881    22.159151 -0.0001044325 
 3076000    1.0341414  0.027857017    20.753983     22.32672 0.0013125278 
 3077000    1.0833792  0.022892783    20.651545    22.292874 0.00018926098 
 3078000   0.94340264  0.019160785     20.67668    22.105168 0.00041238803 
 3079000   0.98695738  0.037501484    20.718157    22.230052 -0.00012822891 
 3080000   0.97538245  0.024532471    20.673966      22.1556 0.00048058941 
 3081000   0.97654164  0.025865445    20.623653    22.108352 0.0010258806 
 3082000    1.0218469  0.03